unknown system                          
   1.00000000000000     
     2.394822    0.001192   -0.004715
     0.001192    2.387256    0.001560
    -0.004715    0.001560    2.383470
   Au   Cu
     1     3
Direct
  0.005000  0.010000  0.992000
  0.512000  0.495000  0.007000
  0.490000  0.989000  0.505000
  0.013000  0.508000  0.497000
 
   32   32   32
  244.82      238.83      218.06      189.91      160.70      132.29      103.86      75.882      51.307      33.244    
  22.224      15.909      12.120      10.003      8.8564      8.2420      7.9951      8.0946      8.5522      9.4734    
  11.201      14.360      19.737      28.907      44.624      67.398      94.731      123.26      151.63      180.60    
  209.58      233.55      241.52      235.68      215.43      187.90      159.20      131.11      102.93      75.193    
  50.884      33.054      22.180      15.915      12.121      9.9553      8.7345      8.0498      7.7645      7.8738    
  8.3858      9.3840      11.180      14.371      19.729      28.791      44.297      66.802      93.869      122.15    
  150.22      178.75      207.13      230.53      222.52      217.56      200.19      176.08      150.10      123.76    
  96.862      70.535      47.814      31.419      21.489      15.647      12.070      9.9855      8.7683      8.0619    
  7.7631      7.8805      8.4175      9.4322      11.188      14.223      19.259      27.570      41.770      62.680    
  88.244      115.21      141.75      167.87      192.95      213.14      194.88      191.06      177.43      157.75    
  135.30      111.38      86.575      62.719      42.757      28.772      20.372      15.262      12.145      10.344    
  9.3105      8.7282      8.4955      8.6102      9.0735      9.9427      11.458      14.097      18.510      25.608    
  37.639      55.813      78.744      103.51      127.81      150.78      171.60      187.61      165.53      162.66    
  152.14      136.17      116.83      95.465      73.455      53.041      36.728      25.728      19.076      14.864    
  12.315      10.851      10.024      9.5745      9.4097      9.5199      9.9040      10.613      11.851      14.011    
  17.644      23.376      32.790      47.430      66.753      88.501      110.22      130.29      147.50      160.02    
  137.02      134.75      126.25      112.84      96.098      77.594      59.177      43.004      30.795      22.834    
  17.798      14.535      12.545      11.366      10.673      10.286      10.148      10.256      10.607      11.228    
  12.257      13.978      16.813      21.255      28.106      38.902      53.916      71.801      90.435      107.85    
  122.44      132.66      108.65      106.76      99.687      88.442      74.503      59.590      45.547      33.998    
  25.753      20.364      16.742      14.450      13.097      12.354      11.984      11.831      11.815      11.906    
  12.102      12.454      13.095      14.250      16.230      19.419      24.183      31.412      41.915      55.257    
  70.013      84.374      96.579      105.07      80.456      78.944      73.372      64.663      54.204      43.566    
  34.175      26.929      21.884      18.382      16.124      14.915      14.523      14.725      15.272      15.875    
  16.270      16.300      15.984      15.514      15.188      15.321      16.194      18.064      21.152      25.629    
  32.112      40.825      51.118      61.707      71.045      77.661      55.061      53.994      50.175      44.370    
  37.688      31.263      25.917      21.910      18.979      17.068      16.214      16.408      17.600      19.606    
  22.003      24.150      25.381      25.290      23.933      21.800      19.582      17.899      17.137      17.468    
  18.934      21.497      25.087      29.945      36.005      42.613      48.716      53.167      35.790      35.157    
  32.994      29.819      26.322      23.099      20.433      18.348      17.006      16.607      17.405      19.679    
  23.549      28.725      34.353      39.182      42.078      41.733      38.385      33.388      27.882      23.079    
  19.711      17.970      17.690      18.578      20.352      22.761      25.724      29.075      32.309      34.747    
  23.708      23.384      22.363      20.931      19.382      17.900      16.681      15.949      15.977      17.180    
  20.190      25.687      33.902      44.872      62.890      85.321      100.35      98.240      80.442      58.269    
  42.244      32.247      24.738      19.961      17.545      16.794      17.107      18.069      19.384      20.815    
  22.186      23.250      16.826      16.646      16.141      15.534      14.968      14.485      14.221      14.506    
  15.824      18.916      24.942      35.064      52.397      93.730      162.95      238.20      284.71      278.17    
  222.12      145.37      81.625      47.283      32.780      23.728      18.545      16.015      15.058      14.973    
  15.290      15.728      16.195      16.622      12.680      12.564      12.295      12.172      12.249      12.370    
  12.674      13.755      16.406      21.753      31.561      49.290      101.75      215.93      379.49      541.37    
  636.73      623.42      507.49      339.41      184.01      84.797      43.964      29.176      20.587      16.031    
  13.867      13.037      12.763      12.580      12.476      12.565      10.331      10.234      10.036      10.179    
  10.651      11.094      11.710      13.454      17.480      25.290      39.232      77.807      194.47      412.42    
  695.71      960.07      1110.9      1090.0      905.60      628.03      353.77      158.49      64.039      35.590    
  23.300      16.570      13.229      11.846      11.266      10.733      10.280      10.209      9.0420      8.9422    
  8.7234      9.0001      9.7127      10.317      11.096      13.382      18.662      28.749      47.986      119.06    
  309.80      634.45      1032.1      1389.0      1588.3      1560.9      1316.3      938.71      549.21      253.00    
  94.064      41.909      26.019      17.287      12.895      11.099      10.376      9.6552      8.9927      8.8661    
  8.3315      8.2234      7.9659      8.3048      9.1528      9.8341      10.698      13.347      19.499      31.159    
  56.142      155.35      402.68      803.89      1279.6      1697.2      1927.3      1895.7      1612.8      1169.1    
  699.97      330.41      121.23      47.255      27.923      17.802      12.685      10.623      9.8344      9.0198    
  8.2420      8.1022      8.0004      7.8908      7.6225      7.9792      8.8667      9.5731      10.467      13.225    
  19.630      31.739      58.687      166.39      430.02      852.67      1349.7      1783.5      2021.7      1989.1    
  1696.1      1234.6      743.60      353.35      129.57      48.870      28.350      17.831      12.501      10.358    
  9.5482      8.7061      7.8965      7.7545      8.0201      7.9191      7.6812      8.0179      8.8492      9.5331    
  10.402      12.988      18.952      30.256      53.658      145.48      378.33      760.21      1216.4      1619.0    
  1841.6      1811.1      1537.6      1110.2      661.03      310.00      113.71      45.512      27.104      17.294    
  12.329      10.308      9.5140      8.7068      7.9474      7.8050      8.4017      8.3154      8.1337      8.4142    
  9.1073      9.7221      10.514      12.698      17.666      27.149      44.583      104.99      272.75      565.14    
  928.83      1258.7      1444.1      1418.6      1191.5      843.14      487.92      222.32      83.539      39.367    
  24.556      16.349      12.210      10.478      9.7407      9.0259      8.3864      8.2506      9.2267      9.1515    
  9.0135      9.1925      9.6798      10.169      10.829      12.484      16.179      23.308      36.037      66.296    
  160.35      343.39      587.48      818.90      952.16      933.70      771.08      528.82      293.64      130.89    
  55.623      32.700      21.458      15.311      12.230      10.891      10.265      9.7036      9.2430      9.1402    
  10.793      10.711      10.547      10.540      10.732      10.992      11.423      12.501      14.915      19.677    
  28.381      42.941      80.689      167.44      296.98      428.36      506.75      495.80      400.72      264.92    
  142.79      68.354      39.025      26.227      18.598      14.522      12.519      11.643      11.236      10.930    
  10.730      10.730      13.684      13.560      13.236      12.883      12.608      12.438      12.458      12.906    
  14.175      16.909      22.115      30.831      43.860      71.090      119.10      173.44      207.73      202.90    
  161.73      106.72      63.054      40.490      28.832      21.029      16.526      14.245      13.252      12.949    
  12.967      13.111      13.327      13.565      18.673      18.457      17.790      16.844      15.820      14.891    
  14.195      13.870      14.111      15.254      17.830      22.425      29.285      37.900      48.925      62.431    
  71.704      70.403      59.500      46.234      36.096      27.882      21.605      17.586      15.468      14.660    
  14.661      15.151      15.926      16.834      17.718      18.393      27.072      26.650      25.240      23.193    
  20.949      18.831      17.000      15.616      14.793      14.659      15.413      17.295      20.435      24.637    
  29.232      33.161      35.333      35.091      32.528      28.438      23.946      20.042      17.292      15.809    
  15.430      15.914      17.056      18.695      20.659      22.793      24.847      26.407      41.680      40.891    
  38.108      33.946      29.262      24.869      21.246      18.401      16.292      14.962      14.401      14.599    
  15.536      17.092      18.955      20.629      21.592      21.522      20.464      18.805      17.085      15.775    
  15.156      15.340      16.347      18.172      20.761      24.073      28.182      32.764      37.095      40.306    
  63.501      62.259      57.729      50.746      42.551      34.481      27.610      22.428      18.687      16.027    
  14.332      13.406      13.064      13.150      13.493      13.894      14.165      14.195      13.998      13.711    
  13.543      13.710      14.407      15.827      18.167      21.553      26.204      32.517      40.237      48.452    
  55.883      61.230      90.425      88.759      82.545      72.737      60.771      48.336      37.079      28.196    
  21.995      17.772      14.902      13.084      11.983      11.342      10.990      10.820      10.783      10.859    
  11.048      11.383      11.954      12.917      14.506      17.036      20.825      26.297      34.296      44.856    
  57.025      69.258      79.857      87.291      119.00      116.97      109.33      97.171      81.970      65.446    
  49.540      36.143      26.407      20.102      15.939      13.257      11.622      10.651      10.082      9.7674    
  9.6569      9.7443      10.028      10.536      11.384      12.799      15.129      18.806      24.313      32.864    
  45.150      60.414      76.913      92.679      105.93      115.12      147.46      144.99      135.80      121.45    
  103.61      83.800      63.780      45.835      32.016      22.926      17.306      13.691      11.508      10.246    
  9.5281      9.1343      8.9873      9.0786      9.4087      10.023      11.091      12.946      16.062      20.971    
  28.756      41.041      57.841      77.445      97.518      116.11      131.72      142.73      176.38      173.19    
  161.61      144.34      123.81      101.32      78.031      56.119      38.311      26.148      18.843      14.273    
  11.480      9.8436      8.8795      8.3192      8.0858      8.1861      8.6215      9.4340      10.824      13.202    
  17.157      23.406      33.832      49.909      70.797      93.944      116.85      138.10      156.61      170.30    
  205.69      201.43      186.41      165.07      141.23      116.26      90.476      65.488      44.330      29.350    
  20.342      14.938      11.623      9.6842      8.5418      7.8712      7.5823      7.6873      8.1899      9.1406    
  10.779      13.597      18.273      25.853      38.777      58.133      82.273      108.10      133.42      157.68    
  180.11      197.65      231.05      225.70      207.06      181.45      154.24      127.06      99.500      72.459    
  48.968      31.908      21.560      15.549      11.913      9.8493      8.6974      8.0580      7.7928      7.8932    
  8.3684      9.3044      11.008      14.060      19.209      27.843      42.645      64.328      90.662      118.33    
  145.63      172.86      199.40      220.98      232.07      226.67      207.89      182.09      154.75      127.49    
  99.864      72.751      49.175      32.033      21.623      15.574      11.908      9.8259      8.6683      8.0365    
  7.7884      7.9076      8.3956      9.3351      11.036      14.088      19.245      27.913      42.781      64.546    
  90.956      118.69      146.07      173.43      200.15      221.91      229.09      223.83      205.49      180.23    
  153.31      126.35      98.954      72.086      48.771      31.855      21.584      15.584      11.918      9.7952    
  8.5723      7.8768      7.5927      7.7187      8.2540      9.2616      11.023      14.101      19.239      27.805    
  42.471      63.972      90.119      117.61      144.72      171.69      197.90      219.17      211.92      207.42    
  191.55      169.23      144.66      119.24      93.089      67.614      45.856      30.318      20.936      15.338    
  11.887      9.8527      8.6439      7.9352      7.6398      7.7689      8.3187      9.3313      11.046      13.968    
  18.796      26.664      40.084      60.032      84.692      110.90      136.61      161.50      184.88      203.39    
  186.67      183.15      170.49      151.97      130.47      107.25      83.145      60.126      41.065      27.834    
  19.884      14.983      11.983      10.231      9.2116      8.6315      8.4020      8.5230      8.9907      9.8508    
  11.324      13.860      18.088      24.830      36.190      53.483      75.537      99.571      123.19      145.31    
  165.01      179.94      159.30      156.59      146.61      131.31      112.59      91.813      70.488      50.880    
  35.367      24.978      18.655      14.620      12.172      10.754      9.9442      9.5002      9.3385      9.4503    
  9.8316      10.527      11.724      13.797      17.273      22.742      31.629      45.509      64.009      85.030    
  106.14      125.62      142.17      154.09      132.05      129.87      121.67      108.69      92.441      74.510    
  56.774      41.335      29.777      22.259      17.447      14.327      12.418      11.282      10.609      10.232    
  10.098      10.205      10.547      11.149      12.141      13.790      16.500      20.748      27.234      37.433    
  51.723      68.901      86.930      103.84      117.99      127.85      104.53      102.71      95.862      84.985    
  71.522      57.181      43.765      32.816      25.037      19.917      16.457      14.269      12.976      12.263    
  11.906      11.759      11.745      11.832      12.021      12.359      12.974      14.078      15.968      19.011    
  23.552      30.374      40.308      53.021      67.185      81.041      92.846      101.06      77.190      75.739    
  70.386      62.029      52.020      41.886      32.990      26.157      21.382      18.039      15.890      14.742    
  14.375      14.577      15.110      15.697      16.081      16.109      15.800      15.341      15.020      15.139    
  15.964      17.741      20.683      24.937      31.047      39.284      49.070      59.190      68.144      74.501    
  52.800      51.785      48.153      42.638      36.307      30.239      25.203      21.413      18.618      16.805    
  16.004      16.209      17.375      19.328      21.659      23.745      24.941      24.851      23.532      21.457    
  19.300      17.658      16.904      17.201      18.586      21.024      24.431      29.005      34.717      40.970    
  46.761      50.995      34.493      33.896      31.856      28.865      25.572      22.534      20.000      18.016    
  16.750      16.390      17.182      19.401      23.168      28.207      33.686      38.363      41.101      40.777    
  37.599      32.742      27.381      22.705      19.424      17.719      17.422      18.250      19.931      22.223    
  25.017      28.167      31.211      33.508      23.088      22.783      21.819      20.464      18.987      17.573    
  16.418      15.736      15.786      16.969      19.903      25.253      33.253      43.745      60.463      81.331    
  95.373      93.397      76.788      56.186      41.291      31.635      24.324      19.673      17.313      16.564    
  16.841      17.745      18.993      20.357      21.654      22.658      16.519      16.346      15.867      15.291    
  14.759      14.310      14.074      14.367      15.658      18.670      24.534      34.389      50.759      89.250    
  154.33      225.52      269.66      263.45      210.28      137.76      77.948      46.021      32.161      23.349    
  18.305      15.837      14.893      14.792      15.079      15.486      15.923      16.326      12.511      12.399    
  12.152      12.052      12.146      12.283      12.597      13.657      16.238      21.439      30.985      47.879    
  96.775      204.52      360.14      514.86      606.20      593.45      482.44      321.93      174.30      80.923    
  42.927      28.661      20.302      15.870      13.762      12.943      12.659      12.461      12.341      12.410    
  10.195      10.104      9.9337      10.104      10.593      11.052      11.672      13.377      17.291      24.888    
  38.447      74.380      184.18      391.64      663.07      917.33      1062.7      1042.6      864.91      598.13    
  335.66      150.16      61.575      34.918      22.950      16.406      13.156      11.800      11.213      10.667    
  10.196      10.097      8.8797      8.7860      8.6073      8.9231      9.6624      10.292      11.080      13.314    
  18.447      28.260      46.660      112.98      293.67      604.22      986.81      1331.5      1524.4      1497.8    
  1261.3      896.85      522.48      239.64      89.554      40.991      25.602      17.110      12.839      11.078    
  10.342      9.5987      8.9078      8.7385      8.1264      8.0256      7.8194      8.2104      9.0965      9.8141    
  10.694      13.284      19.265      30.611      54.221      147.12      382.17      766.91      1225.7      1629.9    
  1853.1      1822.5      1548.2      1118.9      667.01      313.22      115.00      45.982      27.460      17.616    
  12.639      10.614      9.8050      8.9569      8.1384      7.9419      7.7710      7.6692      7.4576      7.8735    
  8.8060      9.5548      10.468      13.167      19.395      31.178      56.576      157.52      408.24      813.77    
  1293.4      1713.6      1944.8      1913.1      1628.8      1182.1      708.86      335.05      122.83      47.477    
  27.877      17.645      12.462      10.355      9.5200      8.6380      7.7807      7.5747      7.8007      7.7070    
  7.5228      7.9164      8.7915      9.5159      10.403      12.934      18.734      29.734      51.909      137.81    
  358.90      724.87      1164.6      1554.1      1769.9      1740.3      1475.3      1062.1      629.59      293.77    
  107.93      44.351      26.663      17.122      12.292      10.305      9.4871      8.6417      7.8360      7.6325    
  8.2213      8.1410      8.0029      8.3299      9.0583      9.7048      10.510      12.648      17.480      26.706    
  43.477      99.769      258.39      537.69      887.25      1205.5      1384.7      1360.1      1140.6      804.77    
  463.74      210.51      79.705      38.574      24.181      16.198      12.171      10.469      9.7144      8.9701    
  8.2935      8.1081      9.0897      9.0192      8.9120      9.1238      9.6356      10.146      10.812      12.433    
  16.027      22.962      35.359      63.642      151.89      325.71      559.14      781.38      909.62      891.86    
  735.43      502.95      278.32      124.12      53.739      32.104      21.160      15.182      12.183      10.867    
  10.232      9.6520      9.1663      9.0292      10.664      10.586      10.444      10.460      10.670      10.945    
  11.381      12.439      14.789      19.422      27.893      41.936      77.055      158.59      281.46      406.72    
  481.64      471.18      380.35      250.99      135.34      65.568      38.238      25.793      18.370      14.404    
  12.453      11.590      11.176      10.857      10.639      10.617      13.483      13.364      13.061      12.733    
  12.483      12.335      12.370      12.817      14.059      16.722      21.787      30.271      42.792      68.096    
  113.01      164.19      196.61      192.04      153.14      101.40      60.631      39.627      28.320      20.727    
  16.344      14.121      13.147      12.838      12.839      12.962      13.156      13.374      18.286      18.080    
  17.442      16.538      15.561      14.680      14.026      13.731      13.980      15.101      17.612      22.083    
  28.761      37.147      47.495      60.020      68.634      67.426      57.305      44.999      35.392      27.389    
  21.280      17.368      15.302      14.502      14.485      14.938      15.668      16.530      17.373      18.018    
  26.246      25.849      24.522      22.592      20.468      18.446      16.700      15.388      14.617      14.507    
  15.251      17.087      20.144      24.233      28.704      32.528      34.642      34.405      31.908      27.926    
  23.554      19.755      17.077      15.626      15.242      15.686      16.763      18.320      20.194      22.215    
  24.151      25.620      40.046      39.300      36.670      32.740      28.324      24.184      20.757      18.042    
  16.035      14.776      14.252      14.456      15.373      16.888      18.700      20.327      21.262      21.192    
  20.163      18.549      16.875      15.597      14.987      15.147      16.097      17.829      20.298      23.438    
  27.308      31.624      35.711      38.746      60.848      59.663      55.341      48.688      40.901      33.258    
  26.775      21.881      18.312      15.776      14.162      13.282      12.961      13.050      13.385      13.775    
  14.039      14.067      13.874      13.592      13.424      13.578      14.238      15.587      17.816      21.050    
  25.452      31.404      38.703      46.502      53.578      58.679      86.799      85.194      79.214      69.780    
  58.299      46.417      35.720      27.326      21.464      17.428      14.687      12.950      11.896      11.278    
  10.936      10.772      10.736      10.810      10.994      11.318      11.867      12.789      14.306      16.721    
  20.344      25.531      33.082      43.097      54.706      66.433      76.624      83.780      114.55      112.58    
  105.21      93.441      78.738      62.808      47.567      34.830      25.629      19.649      15.661      13.094    
  11.522      10.580      10.022      9.7122      9.6044      9.6925      9.9732      10.471      11.291      12.651    
  14.880      18.397      23.642      31.718      43.372      57.963      73.846      89.089      101.92      110.80    
  142.05      139.69      130.89      117.04      99.749      80.528      61.202      44.025      30.914      22.326    
  16.958      13.490      11.384      10.153      9.4415      9.0474      8.9023      8.9987      9.3334      9.9430    
  10.984      12.770      15.755      20.454      27.819      39.449      55.482      74.363      93.821      111.87    
  126.96      137.53      169.47      166.48      155.60      139.17      119.37      97.517      74.922      53.829    
  36.860      25.360      18.422      14.031      11.333      9.7293      8.7680      8.2041      7.9733      8.0840    
  8.5314      9.3450      10.705      12.999      16.791      22.750      32.596      47.870      67.913      90.329    
  112.60      133.17      150.86      163.78      196.58      192.68      178.84      158.90      136.19      112.01    
  86.938      62.792      42.559      28.370      19.846      14.654      11.448      9.5438      8.3993      7.7203    
  7.4338      7.5542      8.0771      9.0359      10.644      13.365      17.853      25.047      37.259      55.704    
  78.959      104.05      128.64      151.89      172.98      189.21      219.65      214.81      197.86      174.24    
  148.62      122.45      95.657      69.471      46.956      30.775      20.997      15.232      11.712      9.6813    
  8.5200      7.8652      7.5999      7.7195      8.2231      9.1756      10.853      13.802      18.744      26.915    
  40.912      61.615      87.040      113.94      140.36      166.21      190.83      210.53      207.26      202.94    
  187.71      166.14      142.13      117.05      91.173      66.058      44.744      29.613      20.491      15.008    
  11.626      9.6414      8.4823      7.8265      7.5747      7.7199      8.2470      9.1983      10.820      13.623    
  18.302      25.931      38.972      58.486      82.784      108.75      134.21      158.65      181.33      199.11    
  204.89      200.67      185.75      164.55      140.85      116.00      90.324      65.446      44.379      29.453    
  20.454      15.019      11.650      9.6434      8.4412      7.7398      7.4597      7.6064      8.1643      9.1618    
  10.823      13.639      18.294      25.836      38.695      57.964      82.008      107.75      132.98      157.14    
  179.46      196.90      191.01      187.33      174.16      155.03      133.02      109.41      84.896      61.381    
  41.788      28.108      19.872      14.798      11.640      9.7353      8.5693      7.8735      7.5888      7.7298    
  8.2818      9.2606      10.860      13.521      17.888      24.844      36.597      54.417      77.015      101.52    
  125.57      148.19      168.50      184.00      170.03      167.04      156.13      139.71      119.98      98.237    
  75.711      54.604      37.547      25.937      18.919      14.474      11.735      10.104      9.1268      8.5602    
  8.3376      8.4622      8.9229      9.7457      11.113      13.419      17.238      23.247      33.184      48.546    
  68.619      90.981      113.15      133.64      151.32      164.29      146.21      143.80      134.82      120.78    
  103.31      83.841      64.085      46.295      32.533      23.439      17.795      14.145      11.918      10.604    
  9.8354      9.4049      9.2468      9.3550      9.7218      10.378      11.484      13.365      16.500      21.420    
  29.206      41.445      58.111      77.476      97.225      115.47      130.76      141.56      121.30      119.29    
  111.71      99.619      84.443      67.813      51.618      37.801      27.643      21.040      16.702      13.891    
  12.164      11.122      10.496      10.140      10.013      10.110      10.427      10.983      11.889      13.379    
  15.816      19.645      25.387      34.320      47.029      62.622      79.281      95.060      108.27      117.42    
  95.533      93.850      87.516      77.455      65.061      51.998      39.967      30.308      23.503      18.930    
  15.818      13.851      12.679      12.023      11.686      11.541      11.521      11.598      11.773      12.089    
  12.655      13.658      15.357      18.090      22.172      28.154      36.879      48.220      61.064      73.789    
  84.704      92.319      70.139      68.822      63.953      56.372      47.350      38.308      30.468      24.493    
  20.256      17.246      15.315      14.272      13.916      14.063      14.505      15.002      15.328      15.353    
  15.093      14.712      14.461      14.601      15.362      16.964      19.609      23.415      28.761      35.992    
  44.688      53.781      61.893      67.681      48.008      47.109      43.877      38.984      33.393      28.069    
  23.661      20.290      17.773      16.145      15.411      15.558      16.548      18.230      20.249      22.060    
  23.098      23.019      21.872      20.075      18.215      16.811      16.189      16.485      17.736      19.928    
  22.982      26.989      31.987      37.491      42.624      46.393      31.808      31.289      29.504      26.885    
  23.997      21.313      19.025      17.238      16.102      15.765      16.435      18.353      21.636      26.047    
  30.863      34.969      37.235      36.979      34.302      30.026      25.322      21.239      18.392      16.928    
  16.695      17.446      18.958      21.030      23.506      26.265      28.928      30.941      21.842      21.574    
  20.719      19.497      18.139      16.849      15.810      15.199      15.231      16.253      18.807      23.487    
  30.526      39.399      51.352      66.163      76.293      74.866      62.933      48.377      37.514      29.099    
  22.683      18.625      16.576      15.936      16.192      17.002      18.133      19.384      20.560      21.458    
  15.941      15.786      15.349      14.817      14.321      13.914      13.711      13.970      15.093      17.721    
  22.859      31.540      44.589      72.076      120.45      175.04      209.42      204.57      163.27      107.97    
  63.953      41.205      29.576      21.832      17.420      15.269      14.448      14.357      14.609      14.982    
  15.393      15.766      12.283      12.183      11.969      11.875      11.952      12.085      12.384      13.324    
  15.576      20.129      28.531      42.509      77.610      159.13      281.75      406.44      480.89      470.47    