unknown system                          
   1.00000000000000     
     3.551672    0.000060   -0.000205
     0.000065    3.552344    0.000211
    -0.000214    0.000213    3.552521
   Au   Cu
     1     3
Direct
  0.004846  0.000686  0.000134
  0.504600  0.500871  0.000578
  0.505290  0.000051  0.500004
  0.005263  0.500392  0.500283
 
   32   32   32
 0.21234949310E+03 0.20753962616E+03 0.19083793114E+03 0.16784679677E+03 0.14373399728E+03
 0.12040600099E+03 0.97287986035E+02 0.74135128634E+02 0.52638280987E+02 0.35436480640E+02
 0.23960643974E+02 0.17326879577E+02 0.13366714104E+02 0.11036732659E+02 0.97401690677E+01
 0.90784939793E+01 0.88448405462E+01 0.89665543201E+01 0.94816286665E+01 0.10550057659E+02
 0.12503671499E+02 0.15888537505E+02 0.21486317024E+02 0.31262965729E+02 0.46738210681E+02
 0.67168786363E+02 0.90072079203E+02 0.11325634926E+03 0.13641509219E+03 0.16032407119E+03
 0.18408726015E+03 0.20340638484E+03 0.20573987541E+03 0.20121379957E+03 0.18546398436E+03
 0.16365786181E+03 0.14054347779E+03 0.11787264972E+03 0.95187769736E+02 0.72443199281E+02
 0.51421433583E+02 0.34703342868E+02 0.23602276165E+02 0.17164578984E+02 0.13276550979E+02
 0.10964078012E+02 0.96508247264E+01 0.89631860884E+01 0.87154567045E+01 0.88451089752E+01
 0.93845688731E+01 0.10475249061E+02 0.12424502438E+02 0.15755449802E+02 0.21209081761E+02
 0.30663138718E+02 0.45676740559E+02 0.65618292056E+02 0.88094693625E+02 0.11087256952E+03
 0.13346480420E+03 0.15647991899E+03 0.17908042229E+03 0.19732236628E+03 0.18786223044E+03
 0.18407243079E+03 0.17078320859E+03 0.15202270849E+03 0.13146205529E+03 0.11049349629E+03
 0.89006452560E+02 0.67478406742E+02 0.47889308990E+02 0.32609292336E+02 0.22606463567E+02
 0.16745695151E+02 0.13118290698E+02 0.10927253017E+02 0.96452589927E+01 0.89489900845E+01
 0.86910564284E+01 0.88266853860E+01 0.93786395383E+01 0.10455287850E+02 0.12316654223E+02
 0.15433706254E+02 0.20448603331E+02 0.28959130004E+02 0.42606592887E+02 0.61078215087E+02
 0.82270718341E+02 0.10389295100E+03 0.12499783723E+03 0.14572506662E+03 0.16534313690E+03
 0.18080561427E+03 0.16450643408E+03 0.16157623881E+03 0.15114440715E+03 0.13588913668E+03
 0.11826544545E+03 0.99358811383E+02 0.79568458524E+02 0.59980400307E+02 0.42677830166E+02
 0.29612862900E+02 0.21239804555E+02 0.16225120738E+02 0.13068874636E+02 0.11168444636E+02
 0.10056046213E+02 0.94498607276E+01 0.92240704270E+01 0.93423259746E+01 0.98230651759E+01
 0.10757656089E+02 0.12371819507E+02 0.15079752913E+02 0.19422122401E+02 0.26547124062E+02
 0.38115002352E+02 0.54263395988E+02 0.73390279752E+02 0.93289799429E+02 0.11252208590E+03
 0.13059969809E+03 0.14679298394E+03 0.15903649354E+03 0.14048679630E+03 0.13825229960E+03
 0.13012395991E+03 0.11769544770E+03 0.10253454001E+03 0.85650601639E+02 0.67971955157E+02
 0.51008399663E+02 0.36679045163E+02 0.26315132136E+02 0.19795357534E+02 0.15719685503E+02
 0.13150255324E+02 0.11618351465E+02 0.10730891721E+02 0.10251175378E+02 0.10072681485E+02
 0.10165283843E+02 0.10544361484E+02 0.11287184434E+02 0.12584108528E+02 0.14781438719E+02
 0.18340162904E+02 0.23929130311E+02 0.33012788305E+02 0.46197776299E+02 0.62545808790E+02
 0.80197427691E+02 0.97446652768E+02 0.11323011583E+03 0.12664763596E+03 0.13629949966E+03
 0.11725407442E+03 0.11546875837E+03 0.10884803527E+03 0.98374367279E+02 0.85208475444E+02
 0.70475986136E+02 0.55468177024E+02 0.41764040570E+02 0.30824734939E+02 0.23268703310E+02
 0.18482218601E+02 0.15337121721E+02 0.13369531391E+02 0.12192482908E+02 0.11503310686E+02
 0.11125236498E+02 0.10982549393E+02 0.11055977911E+02 0.11355242390E+02 0.11933837266E+02
 0.12932474117E+02 0.14614691108E+02 0.17353027665E+02 0.21541908876E+02 0.28118815196E+02
 0.38019673973E+02 0.50998311984E+02 0.65779755850E+02 0.80752216812E+02 0.94527079252E+02
 0.10595788560E+03 0.11389605053E+03 0.94113619775E+02 0.92633364676E+02 0.87100132583E+02
 0.78266684806E+02 0.67200113088E+02 0.55138315181E+02 0.43436781218E+02 0.33394434835E+02
 0.25854954626E+02 0.20811818571E+02 0.17462095836E+02 0.15288983423E+02 0.14005102483E+02
 0.13307429211E+02 0.12958112785E+02 0.12799601991E+02 0.12746906422E+02 0.12771187085E+02
 0.12887921424E+02 0.13163050293E+02 0.13729887211E+02 0.14801057312E+02 0.16663898750E+02
 0.19623524010E+02 0.24040481142E+02 0.30760562485E+02 0.40084309045E+02 0.51400302647E+02
 0.63500605537E+02 0.75016610888E+02 0.84667138167E+02 0.91323937573E+02 0.71049676831E+02
 0.69870919500E+02 0.65477198273E+02 0.58542448645E+02 0.50080013161E+02 0.41259296279E+02
 0.33202181524E+02 0.26732943911E+02 0.22124235806E+02 0.19005944817E+02 0.16983768787E+02
 0.15926919435E+02 0.15625875648E+02 0.15836582031E+02 0.16294579094E+02 0.16734123663E+02
 0.16942250094E+02 0.16822835854E+02 0.16429315321E+02 0.15945744270E+02 0.15628207848E+02
 0.15744110403E+02 0.16543366035E+02 0.18249360822E+02 0.21013077777E+02 0.25095580340E+02
 0.30987583133E+02 0.38621505860E+02 0.47319791451E+02 0.56023118208E+02 0.63552875349E+02
 0.68827538321E+02 0.49990849324E+02 0.49161399528E+02 0.46096570786E+02 0.41365716906E+02
 0.35805737633E+02 0.30309648158E+02 0.25597853047E+02 0.22028819734E+02 0.19522196198E+02
 0.17941808275E+02 0.17352269420E+02 0.17738952396E+02 0.18987519216E+02 0.20838335040E+02
 0.22852649876E+02 0.24473530700E+02 0.25200374548E+02 0.24794889063E+02 0.23389954017E+02
 0.21428028333E+02 0.19470998003E+02 0.18004045487E+02 0.17338519933E+02 0.17625267250E+02
 0.18906346893E+02 0.21131732559E+02 0.24346209983E+02 0.28724282459E+02 0.34043665175E+02
 0.39678925309E+02 0.44766434812E+02 0.48427596413E+02 0.33534835588E+02 0.33049795919E+02
 0.31280104204E+02 0.28627073485E+02 0.25641453782E+02 0.22842086035E+02 0.20555975947E+02
 0.18860229314E+02 0.17875965227E+02 0.17834703664E+02 0.18959598391E+02 0.21405877411E+02
 0.25118711565E+02 0.29676615400E+02 0.34273627535E+02 0.38280204262E+02 0.40342008589E+02
 0.39174259360E+02 0.35540835460E+02 0.31059507478E+02 0.26390351607E+02 0.22361319382E+02
 0.19517068723E+02 0.18006059536E+02 0.17718001664E+02 0.18441143368E+02 0.19944994086E+02
 0.22051493348E+02 0.24717791080E+02 0.27698452016E+02 0.30519829524E+02 0.32620664974E+02
 0.22821013984E+02 0.22591100931E+02 0.21772279645E+02 0.20595451179E+02 0.19320549866E+02
 0.18135367195E+02 0.17212686473E+02 0.16805710185E+02 0.17225070254E+02 0.18878785933E+02
 0.22258388240E+02 0.27733822649E+02 0.35225025061E+02 0.47184641962E+02 0.66455918568E+02
 0.86667156993E+02 0.96995117501E+02 0.91181356612E+02 0.72791221769E+02 0.52212938084E+02
 0.37990933836E+02 0.29733715623E+02 0.23629218215E+02 0.19650082390E+02 0.17533231695E+02
 0.16794248501E+02 0.16991914437E+02 0.17789351337E+02 0.18918603383E+02 0.20184852393E+02
 0.21423953820E+02 0.22388220142E+02 0.16671475560E+02 0.16564984612E+02 0.16217474721E+02
 0.15780503536E+02 0.15363065989E+02 0.15053999697E+02 0.15051918176E+02 0.15711392793E+02
 0.17526835312E+02 0.21190235052E+02 0.27557093257E+02 0.37400128741E+02 0.59443311597E+02
 0.10590497094E+03 0.17100785689E+03 0.23179918226E+03 0.26113455859E+03 0.24473792231E+03
 0.19066328448E+03 0.12392450508E+03 0.70449047595E+02 0.41825574224E+02 0.30037564663E+02
 0.22729187977E+02 0.18351008640E+02 0.16073380059E+02 0.15134786771E+02 0.14984454894E+02
 0.15227759843E+02 0.15626803907E+02 0.16075479304E+02 0.16475000790E+02 0.12970332719E+02
 0.12907849900E+02 0.12775134696E+02 0.12760277609E+02 0.12888839960E+02 0.13140513779E+02
 0.13769293992E+02 0.15349316777E+02 0.18642770285E+02 0.24677974123E+02 0.34701026343E+02
 0.58502354961E+02 0.12331711246E+03 0.23792302831E+03 0.37987840909E+03 0.50333260845E+03
 0.56089766297E+03 0.52885517624E+03 0.42051169235E+03 0.27865953103E+03 0.15231120442E+03
 0.72371866261E+02 0.39038772228E+02 0.27147912739E+02 0.20054752857E+02 0.16078853883E+02
 0.14089579695E+02 0.13250267309E+02 0.12923973826E+02 0.12764381228E+02 0.12742826472E+02
 0.12866327039E+02 0.10811117029E+02 0.10753708896E+02 0.10710145807E+02 0.10949511899E+02
 0.11421494138E+02 0.12000517728E+02 0.13057223383E+02 0.15469317209E+02 0.20302094931E+02
 0.28904960611E+02 0.45454737963E+02 0.10173001147E+03 0.23312306528E+03 0.43852736000E+03
 0.67417158133E+03 0.86975751491E+03 0.95882097196E+03 0.90938757292E+03 0.73930988365E+03
 0.50767338256E+03 0.28714175622E+03 0.13183153495E+03 0.55839340859E+02 0.32375478595E+02
 0.22345021205E+02 0.16566223239E+02 0.13571837428E+02 0.12219659535E+02 0.11556221687E+02
 0.11052039068E+02 0.10738861937E+02 0.10729502426E+02 0.96170846315E+01 0.95421047322E+01
 0.95101976070E+01 0.98934386327E+01 0.10576214739E+02 0.11336539295E+02 0.12684471734E+02
 0.15816394257E+02 0.22078114888E+02 0.33065441962E+02 0.62060294560E+02 0.16058432043E+03
 0.36530771357E+03 0.66226691769E+03 0.98638596271E+03 0.12467396756E+04 0.13632353139E+04
 0.12987139284E+04 0.10738268933E+04 0.75878912135E+03 0.44525778860E+03 0.20938000997E+03
 0.81451159304E+02 0.37835765269E+02 0.24709558536E+02 0.17248711997E+02 0.13356272131E+02
 0.11620716945E+02 0.10766150373E+02 0.10055585538E+02 0.95685040337E+01 0.95160305066E+01
 0.90198281925E+01 0.89235590891E+01 0.88738752825E+01 0.93298274459E+01 0.10129709032E+02
 0.10980875268E+02 0.12507075155E+02 0.16150075782E+02 0.23454867849E+02 0.36342582207E+02
 0.78667651122E+02 0.21314721048E+03 0.47537468562E+03 0.84025841567E+03 0.12268819292E+04
 0.15310738833E+04 0.16656181378E+04 0.15912034087E+04 0.13295938864E+04 0.95642346083E+03
 0.57491294968E+03 0.27695928025E+03 0.10613318442E+03 0.43034132007E+02 0.26513853162E+02
 0.17825928598E+02 0.13286557281E+02 0.11300308264E+02 0.10347251793E+02 0.95246227023E+01
 0.89440702528E+01 0.88893377627E+01 0.88342017208E+01 0.87284215740E+01 0.86676854350E+01
 0.91462995265E+01 0.99852270586E+01 0.10864803182E+02 0.12454139814E+02 0.16290529076E+02
 0.23993380518E+02 0.37744091270E+02 0.85979182846E+02 0.23506773685E+03 0.51982167351E+03
 0.91057220314E+03 0.13203482640E+04 0.16403551218E+04 0.17812880878E+04 0.17033728196E+04
 0.14285962647E+04 0.10340632016E+04 0.62687627050E+03 0.30481899534E+03 0.11678936878E+03
 0.45385697657E+02 0.27214233619E+02 0.18058826396E+02 0.13273522590E+02 0.11195710434E+02
 0.10211240998E+02 0.93517716605E+01 0.87407985483E+01 0.86899441070E+01 0.90030628395E+01
 0.89059184834E+01 0.88553509264E+01 0.93139456005E+01 0.10118143258E+02 0.10972488057E+02
 0.12505338593E+02 0.16168239679E+02 0.23513924046E+02 0.36486227343E+02 0.79404856550E+02
 0.21537844594E+03 0.47992560169E+03 0.84748623246E+03 0.12365161756E+04 0.15423556269E+04
 0.16775593045E+04 0.16027630760E+04 0.13397631313E+04 0.96436263705E+03 0.58019674020E+03
 0.27977131877E+03 0.10719719702E+03 0.43267231265E+02 0.26587739086E+02 0.17852302744E+02
 0.13288077212E+02 0.11292569291E+02 0.10336194434E+02 0.95095835378E+01 0.89257075879E+01
 0.88712173074E+01 0.95788243577E+01 0.95026897967E+01 0.94702825147E+01 0.98592667141E+01
 0.10550809659E+02 0.11318144365E+02 0.12678817656E+02 0.15845607564E+02 0.22178057191E+02
 0.33284156220E+02 0.63084022910E+02 0.16394979670E+03 0.37251943000E+03 0.67410654248E+03
 0.10025543376E+04 0.12659833497E+04 0.13837433713E+04 0.13184925698E+04 0.10909902570E+04
 0.77189745213E+03 0.45372254114E+03 0.21369421760E+03 0.82971210683E+02 0.38151767558E+02
 0.24835087013E+02 0.17291964436E+02 0.13356319766E+02 0.11603732873E+02 0.10741943880E+02
 0.10023141529E+02 0.95291473921E+01 0.94760101993E+01 0.10740169197E+02 0.10682249250E+02
 0.10640609439E+02 0.10889835245E+02 0.11375729222E+02 0.11967173864E+02 0.13042557129E+02
 0.15497741808E+02 0.20414768645E+02 0.29159059679E+02 0.46258278405E+02 0.10477388293E+03
 0.24029155671E+03 0.45102158412E+03 0.69194681269E+03 0.89147242923E+03 0.98220944156E+03
 0.93181368244E+03 0.75835361763E+03 0.52169665547E+03 0.29572655273E+03 0.13586393256E+03
 0.57082091513E+02 0.32677916100E+02 0.22487832009E+02 0.16611099516E+02 0.13564298694E+02
 0.12188836150E+02 0.11512762014E+02 0.10995147941E+02 0.10670687682E+02 0.10657852661E+02
 0.12846152429E+02 0.12784743273E+02 0.12658729236E+02 0.12659846802E+02 0.12809569047E+02
 0.13082089163E+02 0.13736966501E+02 0.15363722494E+02 0.18740984675E+02 0.24915856051E+02
 0.35171589012E+02 0.60323140395E+02 0.12834696971E+03 0.24759473901E+03 0.39451539155E+03
 0.52188078598E+03 0.58116270704E+03 0.54813578874E+03 0.43640107267E+03 0.28974706624E+03
 0.15854215136E+03 0.74918252159E+02 0.39711538918E+02 0.27433914757E+02 0.20181980060E+02
 0.16109407050E+02 0.14065340423E+02 0.13196226704E+02 0.12848915182E+02 0.12668318717E+02
 0.12629177430E+02 0.12744006426E+02 0.16466243483E+02 0.16363007353E+02 0.16028765088E+02
 0.15616307196E+02 0.15230508520E+02 0.14954816217E+02 0.14989664335E+02 0.15699367276E+02
 0.17591612548E+02 0.21376210940E+02 0.27929924642E+02 0.38142575525E+02 0.61797667121E+02
 0.11121613756E+03 0.17986230166E+03 0.24363550188E+03 0.27432645672E+03 0.25715428544E+03
 0.20046530877E+03 0.13022313214E+03 0.73528405772E+02 0.42870554246E+02 0.30471627401E+02
 0.22955953539E+02 0.18440471826E+02 0.16076257930E+02 0.15082055204E+02 0.14892638890E+02
 0.15102398734E+02 0.15469341215E+02 0.15891490602E+02 0.16275140268E+02 0.22470348434E+02
 0.22249388093E+02 0.21462450825E+02 0.20334411507E+02 0.19113757754E+02 0.17977954977E+02
 0.17106128808E+02 0.16756192280E+02 0.17246626040E+02 0.18998921308E+02 0.22522512469E+02
 0.28198827187E+02 0.35984520073E+02 0.48983447421E+02 0.69924857739E+02 0.91723318690E+02
 0.10281258581E+03 0.96563396487E+02 0.76755032909E+02 0.54449517400E+02 0.38951614101E+02
 0.30259915397E+02 0.23939472934E+02 0.19800971663E+02 0.17574886719E+02 0.16759160024E+02
 0.16897303629E+02 0.17642997843E+02 0.18723723517E+02 0.19937249148E+02 0.21125384084E+02
 0.22052767229E+02 0.32943855724E+02 0.32473543444E+02 0.30756271551E+02 0.28185296492E+02
 0.25297794656E+02 0.22596218728E+02 0.20393156467E+02 0.18764653329E+02 0.17850990687E+02
 0.17891426337E+02 0.19120624634E+02 0.21704208139E+02 0.25587371003E+02 0.30332245526E+02
 0.35143799516E+02 0.39509261245E+02 0.41783694059E+02 0.40491936514E+02 0.36506970762E+02
 0.31763449439E+02 0.26907046334E+02 0.22700338338E+02 0.19708780501E+02 0.18085004462E+02
 0.17710280602E+02 0.18360826478E+02 0.19797874812E+02 0.21827976600E+02 0.24399840033E+02
 0.27281232098E+02 0.30015042311E+02 0.32054743936E+02 0.49154589497E+02 0.48342477410E+02
 0.45339690641E+02 0.40709177084E+02 0.35276816059E+02 0.29920065689E+02 0.25340706035E+02
 0.21880019198E+02 0.19451894819E+02 0.17945211591E+02 0.17434120363E+02 0.17911174249E+02
 0.19265820655E+02 0.21233270084E+02 0.23359123895E+02 0.25064175105E+02 0.25827275515E+02
 0.25400368084E+02 0.23921993335E+02 0.21853023534E+02 0.19778178153E+02 0.18200791989E+02
 0.17440325609E+02 0.17645837884E+02 0.18852426165E+02 0.21003463967E+02 0.24119020263E+02
 0.28370069237E+02 0.33550213686E+02 0.39053123182E+02 0.44031981200E+02 0.47620470399E+02
 0.70060604250E+02 0.68897892895E+02 0.64561501140E+02 0.57721952129E+02 0.49387728113E+02
 0.40719799278E+02 0.32824437986E+02 0.26503821052E+02 0.22009848723E+02 0.18967666789E+02
 0.17011310571E+02 0.16017596402E+02 0.15781353461E+02 0.16059003411E+02 0.16579935922E+02
 0.17067013229E+02 0.17295638821E+02 0.17163919677E+02 0.16728658439E+02 0.16184505067E+02
 0.15799657755E+02 0.15849474401E+02 0.16585120755E+02 0.18226170993E+02 0.20919141960E+02
 0.24899050858E+02 0.30649973357E+02 0.38123111538E+02 0.46664074521E+02 0.55231603396E+02
 0.62657257596E+02 0.67864860779E+02 0.93087145832E+02 0.91620934400E+02 0.86136416964E+02
 0.77381403038E+02 0.66421494829E+02 0.54495893205E+02 0.42955009231E+02 0.33079105984E+02
 0.25684338561E+02 0.20742040050E+02 0.17453949561E+02 0.15330041244E+02 0.14086441807E+02
 0.13423223083E+02 0.13102849527E+02 0.12965012698E+02 0.12920956510E+02 0.12939815175E+02
 0.13038271556E+02 0.13285822370E+02 0.13819102783E+02 0.14851379880E+02 0.16667432240E+02
 0.19569296634E+02 0.23899702488E+02 0.30485344992E+02 0.39645158235E+02 0.50795847438E+02
 0.62752099502E+02 0.74153976654E+02 0.83719485625E+02 0.90320240491E+02 0.11623588966E+03
 0.11446715977E+03 0.10790096495E+03 0.97503359080E+02 0.84426529792E+02 0.69802530981E+02
 0.54931585114E+02 0.41386235066E+02 0.30602100447E+02 0.23167290746E+02 0.18451788620E+02
 0.15349997393E+02 0.13411561981E+02 0.12253065302E+02 0.11575422950E+02 0.11203881214E+02
 0.11063508315E+02 0.11135224811E+02 0.11428668701E+02 0.11996785874E+02 0.12978674940E+02
 0.14634672440E+02 0.17333375788E+02 0.21462638036E+02 0.27931464498E+02 0.37683019249E+02
 0.50499777863E+02 0.65136233398E+02 0.79993249563E+02 0.93675941423E+02 0.10502832690E+03
 0.11290553000E+03 0.13944531808E+03 0.13723656699E+03 0.12919118927E+03 0.11686625366E+03
 0.10180245143E+03 0.85011379142E+02 0.67441404901E+02 0.50612375322E+02 0.36428279084E+02
 0.26189867802E+02 0.19751998045E+02 0.15718351752E+02 0.13176207740E+02 0.11661054266E+02
 0.10783479879E+02 0.10309071552E+02 0.10132384328E+02 0.10223660070E+02 0.10598083068E+02
 0.11332077955E+02 0.12614100217E+02 0.14787073094E+02 0.18308496235E+02 0.23829410566E+02
 0.32797491976E+02 0.45838493970E+02 0.62045616165E+02 0.79581356337E+02 0.96736430677E+02
 0.11242702134E+03 0.12574260684E+03 0.13530254563E+03 0.16343818832E+03 0.16054441353E+03
 0.15023043381E+03 0.13511917179E+03 0.11761830092E+03 0.98805004757E+02 0.79102105652E+02
 0.59618710195E+02 0.42436308243E+02 0.29483456742E+02 0.21190135063E+02 0.16216607224E+02
 0.13085555428E+02 0.11201845978E+02 0.10100393531E+02 0.95007358001E+01 0.92773855589E+01
 0.93940364845E+01 0.98691126614E+01 0.10793775799E+02 0.12392746510E+02 0.15077791284E+02
 0.19385706573E+02 0.26442168963E+02 0.37904294833E+02 0.53930962410E+02 0.72946947923E+02
 0.92756183171E+02 0.11190119950E+03 0.12986691562E+03 0.14591987870E+03 0.15803225699E+03
 0.18690548014E+03 0.18315427765E+03 0.16999080638E+03 0.15138495930E+03 0.13095431774E+03
 0.11007528046E+03 0.88656678999E+02 0.67201976365E+02 0.47698319307E+02 0.32501928765E+02
 0.22561751849E+02 0.16734086086E+02 0.13123919518E+02 0.10943058823E+02 0.96664640095E+01
 0.89726695310E+01 0.87154467826E+01 0.88505254502E+01 0.94003893338E+01 0.10472413469E+02
 0.12324954502E+02 0.15426682375E+02 0.20415016111E+02 0.28870749904E+02 0.42438130428E+02
 0.60822143607E+02 0.81937383814E+02 0.10349258993E+03 0.12451805708E+03 0.14512826703E+03
 0.16459518523E+03 0.17991706737E+03 0.20515476903E+03 0.20065408136E+03 0.18498734444E+03
 0.16328418952E+03 0.14025672299E+03 0.11764406829E+03 0.94999142966E+02 0.72293229754E+02
 0.51315941378E+02 0.34642376818E+02 0.23575479583E+02 0.17155826172E+02 0.13275155446E+02
 0.10965296893E+02 0.96515814434E+01 0.89623992497E+01 0.87137267974E+01 0.88438397066E+01
 0.93847095483E+01 0.10476251553E+02 0.12423843914E+02 0.15748736497E+02 0.21188470516E+02
 0.30612474248E+02 0.45583111884E+02 0.65478846596E+02 0.87915035721E+02 0.11065528644E+03
 0.13319697669E+03 0.15613390471E+03 0.17863340735E+03 0.19678219604E+03 0.20550274703E+03
 0.20098827984E+03 0.18527274581E+03 0.16350827882E+03 0.14042891409E+03 0.11778184799E+03
 0.95113756016E+02 0.72385435978E+02 0.51381873426E+02 0.34681592101E+02 0.23594050196E+02
 0.17163586695E+02 0.13278626846E+02 0.10967208019E+02 0.96535424615E+01 0.89648075471E+01
 0.87161051462E+01 0.88454479144E+01 0.93852513094E+01 0.10476347746E+02 0.12425163465E+02
 0.15753877106E+02 0.21201890347E+02 0.30643363195E+02 0.45638885478E+02 0.65561192602E+02
 0.88020748914E+02 0.11078289646E+03 0.13335414797E+03 0.15633720039E+03 0.17889690202E+03
 0.19710199920E+03 0.19929523734E+03 0.19504125500E+03 0.18019855170E+03 0.15951839779E+03
 0.13735165440E+03 0.11531029866E+03 0.93055156688E+02 0.70730177313E+02 0.50197297925E+02
 0.33971655902E+02 0.23248104562E+02 0.17006335572E+02 0.13195059266E+02 0.10905199149E+02
 0.95802429701E+01 0.88703235409E+01 0.86098063539E+01 0.87458870546E+01 0.93059208928E+01
 0.10413843730E+02 0.12353650290E+02 0.15626048597E+02 0.20934267051E+02 0.30063372395E+02
 0.44607389127E+02 0.64046405636E+02 0.86082592062E+02 0.10845184357E+03 0.13049712175E+03
 0.15266246914E+03 0.17415901624E+03 0.19137695432E+03 0.18246213279E+03 0.17888304599E+03
 0.16629362200E+03 0.14839745455E+03 0.12856536692E+03 0.10809902590E+03 0.86994850379E+02
 0.65875267754E+02 0.46761026726E+02 0.31944748600E+02 0.22285955947E+02 0.16598399927E+02
 0.13048369334E+02 0.10886287844E+02 0.96023823613E+01 0.88929205129E+01 0.86265954047E+01
 0.87663575675E+01 0.93309616452E+01 0.10414837142E+02 0.12258954304E+02 0.15315005609E+02
 0.20198661622E+02 0.28416097818E+02 0.41625769731E+02 0.59613363171E+02 0.80374440318E+02
 0.10161846351E+03 0.12227512396E+03 0.14234558077E+03 0.16111723140E+03 0.17579127862E+03
 0.16032573905E+03 0.15753286463E+03 0.14755509003E+03 0.13286051199E+03 0.11572128812E+03
 0.97185969131E+02 0.77737973782E+02 0.58548469969E+02 0.41695644287E+02 0.29045755900E+02
 0.20962666371E+02 0.16087854264E+02 0.13003248566E+02 0.11132561162E+02 0.10023473144E+02
 0.94100284426E+01 0.91789531017E+01 0.92998090629E+01 0.97879624392E+01 0.10723974561E+02
 0.12318347550E+02 0.14968920642E+02 0.19201418486E+02 0.26084564618E+02 0.37267507743E+02
 0.52964944721E+02 0.71671490661E+02 0.91216943523E+02 0.11009854735E+03 0.12773037421E+03
 0.14337317258E+03 0.15510610804E+03 0.13729262905E+03 0.13513569296E+03 0.12726455425E+03
 0.11516312441E+03 0.10031357560E+03 0.83723039084E+02 0.66371152683E+02 0.49795158756E+02
 0.35874170045E+02 0.25857431116E+02 0.19559048458E+02 0.15590529037E+02 0.13082856149E+02
 0.11578302123E+02 0.10696900027E+02 0.10214189474E+02 0.10032828431E+02 0.10126871439E+02
 0.10509513988E+02 0.11250196892E+02 0.12527746000E+02 0.14675154310E+02 0.18143116823E+02
 0.23553885415E+02 0.32323856642E+02 0.45109398056E+02 0.61055383050E+02 0.78360963455E+02
 0.95312191429E+02 0.11079363048E+03 0.12388394143E+03 0.13324570469E+03 0.11469704304E+03
 0.11295507661E+03 0.10648239365E+03 0.96216230113E+02 0.83287433707E+02 0.68827339355E+02
 0.54143245085E+02 0.40800257966E+02 0.30205497512E+02 0.22912852969E+02 0.18274364820E+02
 0.15214154631E+02 0.13297444314E+02 0.12145464924E+02 0.11465598739E+02 0.11089273567E+02
 0.10946338833E+02 0.11019888626E+02 0.11318406654E+02 0.11890752253E+02 0.12870163503E+02
 0.14510479581E+02 0.17174706306E+02 0.21243554896E+02 0.27590906074E+02 0.37165312154E+02
 0.49779990304E+02 0.64221895871E+02 0.78906726482E+02 0.92435608211E+02 0.10364892872E+03
 0.11141694933E+03 0.91990747763E+02 0.90541106085E+02 0.85118022742E+02 0.76457260262E+02
 0.65613720842E+02 0.53820908248E+02 0.42422826478E+02 0.32685469142E+02 0.25404019525E+02
 0.20531763578E+02 0.17273991132E+02 0.15160960891E+02 0.13909851202E+02 0.13225659712E+02
 0.12878824277E+02 0.12718554623E+02 0.12664451186E+02 0.12689582058E+02 0.12808390734E+02
 0.13082987392E+02 0.13640523302E+02 0.14685705452E+02 0.16497407934E+02 0.19375801732E+02
 0.23652105523E+02 0.30137312539E+02 0.39164513716E+02 0.50171299434E+02 0.61989439727E+02
 0.73267793867E+02 0.82729810781E+02 0.89256329172E+02 0.69357941012E+02 0.68206433284E+02
 0.63913389840E+02 0.57141438116E+02 0.48889558744E+02 0.40309856632E+02 0.32499410100E+02
 0.26249233842E+02 0.21799078713E+02 0.18767637786E+02 0.16798401481E+02 0.15764024360E+02
 0.15458772448E+02 0.15646777789E+02 0.16074379817E+02 0.16487719984E+02 0.16683833537E+02
 0.16571218465E+02 0.16200714487E+02 0.15747622931E+02 0.15456346448E+02 0.15582988998E+02
 0.16368410834E+02 0.18030586658E+02 0.20720906537E+02 0.24667934918E+02 0.30355941414E+02
 0.37747365856E+02 0.46199361420E+02 0.54680529132E+02 0.62031464376E+02 0.67185577636E+02
 0.48799503154E+02 0.47993400188E+02 0.45014630597E+02 0.40419883385E+02 0.35027290479E+02
 0.29707352958E+02 0.25155694772E+02 0.21706662925E+02 0.19266786980E+02 0.17723114367E+02
 0.17136745824E+02 0.17489058732E+02 0.18668717080E+02 0.20426959079E+02 0.22344347554E+02
 0.23888633998E+02 0.24581440393E+02 0.24195046098E+02 0.22856381598E+02 0.20988197869E+02
 0.19127430630E+02 0.17737857382E+02 0.17117500540E+02 0.17412066688E+02 0.18665532689E+02
 0.20835341988E+02 0.23945971486E+02 0.28173521233E+02 0.33318697624E+02 0.38781206214E+02
 0.43720884014E+02 0.47279239573E+02 0.32837086037E+02 0.32368190097E+02 0.30656838776E+02
 0.28091715682E+02 0.25206113019E+02 0.22500221718E+02 0.20283362230E+02 0.18626027054E+02
 0.17659226198E+02 0.17601215957E+02 0.18661942636E+02 0.20988918653E+02 0.24531303974E+02
 0.28888408776E+02 0.33271494825E+02 0.36916648549E+02 0.38751719765E+02 0.37714578371E+02
 0.34442666135E+02 0.30212682159E+02 0.25746906546E+02 0.21900038440E+02 0.19191042194E+02
 0.17759914762E+02 0.17501303314E+02 0.18215467580E+02 0.19686442903E+02 0.21734126672E+02
 0.24312498070E+02 0.27193104895E+02 0.29920851695E+02 0.31952686437E+02 0.22489440820E+02
 0.22267836590E+02 0.21477064189E+02 0.20337258040E+02 0.19096910233E+02 0.17936169422E+02
 0.17031369298E+02 0.16625608682E+02 0.17013618240E+02 0.18583956216E+02 0.21806574030E+02
 0.27039339163E+02 0.34185290414E+02 0.44859094482E+02 0.61937469188E+02 0.80013603590E+02
 0.89301436456E+02 0.84072184584E+02 0.67591598890E+02 0.49303307759E+02 0.36707535309E+02
 0.28954682608E+02 0.23116131438E+02 0.19318599064E+02 0.17304482389E+02 0.16609732560E+02
 0.16813721910E+02 0.17596637502E+02 0.18703599376E+02 0.19938121404E+02 0.21139684096E+02
 0.22071758938E+02 0.16518631807E+02 0.16415986509E+02 0.16078990055E+02 0.15651549974E+02
 0.15241158309E+02 0.14937393882E+02 0.14930229238E+02 0.15555297599E+02 0.17284337570E+02
 0.20781327307E+02 0.26869454897E+02 0.36185025468E+02 0.55746384524E+02 0.97456410508E+02
 0.15672862293E+03 0.21252109985E+03 0.23954703641E+03 0.22444235068E+03 0.17474632005E+03
 0.11380652806E+03 0.65562669295E+02 0.40146418688E+02 0.29245942423E+02 0.22252533979E+02
 0.18070477196E+02 0.15899029246E+02 0.15007190225E+02 0.14868271761E+02 0.15108137875E+02
 0.15500602927E+02 0.15940375559E+02 0.16328755314E+02 0.12884742562E+02 0.12827535554E+02
 0.12706968179E+02 0.12697403333E+02 0.12824380532E+02 0.13072051378E+02 0.13680139243E+02
 0.15191632881E+02 0.18336779101E+02 0.24107375388E+02 0.33694654713E+02 0.54906362245E+02
 0.11327842615E+03 0.21834440737E+03 0.34985450968E+03 0.46489263046E+03 0.51868634220E+03
 0.48874900943E+03 0.38769398011E+03 0.25600366369E+03 0.13973186639E+03 0.67286535547E+02
 0.37652208538E+02 0.26473136638E+02 0.19686524173E+02 0.15888088002E+02 0.13986783313E+02
 0.13178710296E+02 0.12859331297E+02 0.12702248649E+02 0.12677674892E+02 0.12789543275E+02
 0.10738434702E+02 0.10689473961E+02 0.10664990500E+02 0.10911708332E+02 0.11380625086E+02
 0.11954658009E+02 0.12981826784E+02 0.15292866931E+02 0.19911386962E+02 0.28145869281E+02
 0.43323070761E+02 0.93665645793E+02 0.21390001354E+03 0.40458117660E+03 0.62521497400E+03
 0.80926522995E+03 0.89329213165E+03 0.84666477693E+03 0.68648347891E+03 0.46921903787E+03
 0.26387057289E+03 0.12101243427E+03 0.52522980160E+02 0.31475880825E+02 0.21866154840E+02
 0.16341294050E+02 0.13476254925E+02 0.12169636319E+02 0.11515242355E+02 0.11015110622E+02
 0.10698297433E+02 0.10670961198E+02 0.95253125931E+01 0.94627582967E+01 0.94595923402E+01
 0.98560493362E+01 0.10538808514E+02 0.11298117600E+02 0.12612265226E+02 0.15614426430E+02
 0.21600286478E+02 0.32125169076E+02 0.58010559550E+02 0.14715915732E+03 0.33625464445E+03
 0.61399058002E+03 0.91953410459E+03 0.11661858025E+04 0.12768443297E+04 0.12155685606E+04
 0.10023339473E+04 0.70484693082E+03 0.41080639019E+03 0.19196720525E+03 0.75359323141E+02
 0.36529709018E+02 0.24119679725E+02 0.16984009410E+02 0.13258592879E+02 0.11578572727E+02
 0.10730224619E+02 0.10020533474E+02 0.95251630961E+01 0.94452307651E+01 0.89024772494E+01
 0.88219469545E+01 0.88093378009E+01 0.92843584037E+01 0.10088200331E+02 0.10943155153E+02
 0.12433954581E+02 0.15926728605E+02 0.22910649725E+02 0.35161993448E+02 0.72814648781E+02
 0.19530265250E+03 0.43869445472E+03 0.78135683722E+03 0.11472795953E+04 0.14366672545E+04
 0.15650285452E+04 0.14940458017E+04 0.12449387538E+04 0.89113752415E+03 0.53190901741E+03
 0.25422375430E+03 0.97573468037E+02 0.41144841420E+02 0.25840429916E+02 0.17529450502E+02
 0.13184395316E+02 0.11259742117E+02 0.10308986139E+02 0.94830910114E+01 0.88892313961E+01
 0.87986923129E+01 0.87054168364E+01 0.86166992091E+01 0.85963980879E+01 0.90965297122E+01
 0.99411818971E+01 0.10826657970E+02 0.12380188714E+02 0.16058580481E+02 0.23423339355E+02
 0.36424515587E+02 0.79362697588E+02 0.21544552500E+03 0.48015679941E+03 0.84760692406E+03
 0.12359747922E+04 0.15408590931E+04 0.16755277825E+04 0.16010871228E+04 0.13390455223E+04
 0.96446750816E+03 0.58054928441E+03 0.27996265539E+03 0.10720648670E+03 0.43218382267E+02
 0.26508513688E+02 0.17749780852E+02 0.13169213297E+02 0.11155138827E+02 0.10171199951E+02
 0.93066234747E+01 0.86802043623E+01 0.85901588495E+01 0.88853488432E+01 0.88040469394E+01
 0.87907740663E+01 0.92685043032E+01 0.10076653034E+02 0.10934848966E+02 0.12432142911E+02
 0.15943910758E+02 0.22966796363E+02 0.35291831453E+02 0.73471675151E+02 0.19734313721E+03
 0.44292004807E+03 0.78813554013E+03 0.11563796993E+04 0.14473732093E+04 0.15763818941E+04
 0.15050244105E+04 0.12545589609E+04 0.89860011907E+03 0.53683108210E+03 0.25680896001E+03
 0.98530434369E+02 0.41349956205E+02 0.25910732565E+02 0.17554438391E+02 0.13185697713E+02
 0.11252098864E+02 0.10297975453E+02 0.94680881927E+01 0.88708748207E+01 0.87803780722E+01
 0.94868536927E+01 0.94233074134E+01 0.94199731842E+01 0.98222335402E+01 0.10513682289E+02
 0.11280040571E+02 0.12606603599E+02 0.15642045680E+02 0.21695293588E+02 0.32332566289E+02
 0.58916541979E+02 0.15022061024E+03 0.34292545950E+03 0.62505786872E+03 0.93475512575E+03
 0.11843824173E+04 0.12962709174E+04 0.12342853314E+04 0.10185158555E+04 0.71712835044E+03
 0.41866375904E+03 0.19591485362E+03 0.76716926381E+02 0.36812176676E+02 0.24239094522E+02