   4   4   0   0
  0.1291127E+02  0.3724000E-09  0.3724000E-09  0.3724000E-09  0.5000000E-15
  1.000000000000000E-004
  CAR 
 unknown system                          
     26.08891175    -65.72240293  301      8.73078317      1.00000000
    -65.722  0.0000E+00  0.0000E+00
    -65.416  0.0000E+00  0.0000E+00
    -65.110  0.0000E+00  0.0000E+00
    -64.804  0.0000E+00  0.0000E+00
    -64.498  0.0000E+00  0.0000E+00
    -64.192  0.0000E+00  0.0000E+00
    -63.886  0.0000E+00  0.0000E+00
    -63.580  0.0000E+00  0.0000E+00
    -63.274 -0.5765E-33 -0.1764E-33
    -62.968 -0.1981E-22 -0.6064E-23
    -62.662 -0.6243E-14 -0.1910E-14
    -62.356 -0.1846E-07 -0.5649E-08
    -62.050 -0.4624E-03 -0.1415E-03
    -61.744 -0.4867E-01 -0.1504E-01
    -61.438  0.1087E+01  0.3176E+00
    -61.132  0.4552E+00  0.4569E+00
    -60.826 -0.2244E-01  0.4500E+00
    -60.520 -0.2582E-04  0.4500E+00
    -60.214 -0.1918E-09  0.4500E+00
    -59.908  0.0000E+00  0.4500E+00
    -59.602  0.0000E+00  0.4500E+00
    -59.296  0.0000E+00  0.4500E+00
    -58.990  0.0000E+00  0.4500E+00
    -58.684  0.0000E+00  0.4500E+00
    -58.377  0.0000E+00  0.4500E+00
    -58.071  0.0000E+00  0.4500E+00
    -57.765  0.0000E+00  0.4500E+00
    -57.459  0.0000E+00  0.4500E+00
    -57.153  0.0000E+00  0.4500E+00
    -56.847  0.0000E+00  0.4500E+00
    -56.541  0.0000E+00  0.4500E+00
    -56.235  0.0000E+00  0.4500E+00
    -55.929  0.0000E+00  0.4500E+00
    -55.623  0.0000E+00  0.4500E+00
    -55.317  0.0000E+00  0.4500E+00
    -55.011  0.0000E+00  0.4500E+00
    -54.705  0.0000E+00  0.4500E+00
    -54.399  0.0000E+00  0.4500E+00
    -54.093  0.0000E+00  0.4500E+00
    -53.787  0.0000E+00  0.4500E+00
    -53.481  0.0000E+00  0.4500E+00
    -53.175  0.0000E+00  0.4500E+00
    -52.869  0.0000E+00  0.4500E+00
    -52.563  0.0000E+00  0.4500E+00
    -52.257  0.0000E+00  0.4500E+00
    -51.951  0.0000E+00  0.4500E+00
    -51.645  0.0000E+00  0.4500E+00
    -51.339  0.0000E+00  0.4500E+00
    -51.033  0.0000E+00  0.4500E+00
    -50.727  0.0000E+00  0.4500E+00
    -50.421  0.0000E+00  0.4500E+00
    -50.114  0.0000E+00  0.4500E+00
    -49.808  0.0000E+00  0.4500E+00
    -49.502  0.0000E+00  0.4500E+00
    -49.196  0.0000E+00  0.4500E+00
    -48.890  0.0000E+00  0.4500E+00
    -48.584  0.0000E+00  0.4500E+00
    -48.278  0.0000E+00  0.4500E+00
    -47.972  0.0000E+00  0.4500E+00
    -47.666  0.0000E+00  0.4500E+00
    -47.360  0.0000E+00  0.4500E+00
    -47.054  0.0000E+00  0.4500E+00
    -46.748  0.0000E+00  0.4500E+00
    -46.442  0.0000E+00  0.4500E+00
    -46.136  0.0000E+00  0.4500E+00
    -45.830  0.0000E+00  0.4500E+00
    -45.524  0.0000E+00  0.4500E+00
    -45.218  0.0000E+00  0.4500E+00
    -44.912  0.0000E+00  0.4500E+00
    -44.606  0.0000E+00  0.4500E+00
    -44.300  0.0000E+00  0.4500E+00
    -43.994  0.0000E+00  0.4500E+00
    -43.688  0.0000E+00  0.4500E+00
    -43.382  0.0000E+00  0.4500E+00
    -43.076  0.0000E+00  0.4500E+00
    -42.770  0.0000E+00  0.4500E+00
    -42.464  0.0000E+00  0.4500E+00
    -42.157  0.0000E+00  0.4500E+00
    -41.851  0.0000E+00  0.4500E+00
    -41.545  0.0000E+00  0.4500E+00
    -41.239  0.0000E+00  0.4500E+00
    -40.933  0.0000E+00  0.4500E+00
    -40.627  0.0000E+00  0.4500E+00
    -40.321  0.0000E+00  0.4500E+00
    -40.015  0.0000E+00  0.4500E+00
    -39.709  0.0000E+00  0.4500E+00
    -39.403  0.0000E+00  0.4500E+00
    -39.097  0.0000E+00  0.4500E+00
    -38.791  0.0000E+00  0.4500E+00
    -38.485  0.0000E+00  0.4500E+00
    -38.179  0.0000E+00  0.4500E+00
    -37.873  0.0000E+00  0.4500E+00
    -37.567  0.0000E+00  0.4500E+00
    -37.261  0.0000E+00  0.4500E+00
    -36.955  0.0000E+00  0.4500E+00
    -36.649  0.0000E+00  0.4500E+00
    -36.343  0.0000E+00  0.4500E+00
    -36.037  0.0000E+00  0.4500E+00
    -35.731  0.0000E+00  0.4500E+00
    -35.425  0.0000E+00  0.4500E+00
    -35.119  0.0000E+00  0.4500E+00
    -34.813  0.0000E+00  0.4500E+00
    -34.507  0.0000E+00  0.4500E+00
    -34.201  0.0000E+00  0.4500E+00
    -33.894  0.0000E+00  0.4500E+00
    -33.588  0.0000E+00  0.4500E+00
    -33.282  0.0000E+00  0.4500E+00
    -32.976  0.0000E+00  0.4500E+00
    -32.670  0.0000E+00  0.4500E+00
    -32.364  0.0000E+00  0.4500E+00
    -32.058  0.0000E+00  0.4500E+00
    -31.752  0.0000E+00  0.4500E+00
    -31.446  0.0000E+00  0.4500E+00
    -31.140  0.0000E+00  0.4500E+00
    -30.834  0.0000E+00  0.4500E+00
    -30.528  0.0000E+00  0.4500E+00
    -30.222  0.0000E+00  0.4500E+00
    -29.916  0.0000E+00  0.4500E+00
    -29.610  0.0000E+00  0.4500E+00
    -29.304  0.0000E+00  0.4500E+00
    -28.998  0.0000E+00  0.4500E+00
    -28.692  0.0000E+00  0.4500E+00
    -28.386  0.0000E+00  0.4500E+00
    -28.080  0.0000E+00  0.4500E+00
    -27.774  0.0000E+00  0.4500E+00
    -27.468  0.0000E+00  0.4500E+00
    -27.162  0.0000E+00  0.4500E+00
    -26.856  0.0000E+00  0.4500E+00
    -26.550  0.0000E+00  0.4500E+00
    -26.244  0.0000E+00  0.4500E+00
    -25.937  0.0000E+00  0.4500E+00
    -25.631  0.0000E+00  0.4500E+00
    -25.325  0.0000E+00  0.4500E+00
    -25.019  0.0000E+00  0.4500E+00
    -24.713  0.0000E+00  0.4500E+00
    -24.407  0.0000E+00  0.4500E+00
    -24.101  0.0000E+00  0.4500E+00
    -23.795  0.0000E+00  0.4500E+00
    -23.489  0.0000E+00  0.4500E+00
    -23.183  0.0000E+00  0.4500E+00
    -22.877  0.0000E+00  0.4500E+00
    -22.571  0.0000E+00  0.4500E+00
    -22.265  0.0000E+00  0.4500E+00
    -21.959  0.0000E+00  0.4500E+00
    -21.653  0.0000E+00  0.4500E+00
    -21.347  0.0000E+00  0.4500E+00
    -21.041  0.0000E+00  0.4500E+00
    -20.735  0.0000E+00  0.4500E+00
    -20.429  0.0000E+00  0.4500E+00
    -20.123  0.0000E+00  0.4500E+00
    -19.817  0.0000E+00  0.4500E+00
    -19.511  0.0000E+00  0.4500E+00
    -19.205  0.0000E+00  0.4500E+00
    -18.899  0.0000E+00  0.4500E+00
    -18.593  0.0000E+00  0.4500E+00
    -18.287  0.0000E+00  0.4500E+00
    -17.981  0.0000E+00  0.4500E+00
    -17.674  0.0000E+00  0.4500E+00
    -17.368  0.0000E+00  0.4500E+00
    -17.062  0.0000E+00  0.4500E+00
    -16.756  0.0000E+00  0.4500E+00
    -16.450  0.0000E+00  0.4500E+00
    -16.144  0.0000E+00  0.4500E+00
    -15.838  0.0000E+00  0.4500E+00
    -15.532  0.0000E+00  0.4500E+00
    -15.226  0.0000E+00  0.4500E+00
    -14.920  0.0000E+00  0.4500E+00
    -14.614  0.0000E+00  0.4500E+00
    -14.308  0.0000E+00  0.4500E+00
    -14.002  0.0000E+00  0.4500E+00
    -13.696  0.0000E+00  0.4500E+00
    -13.390  0.0000E+00  0.4500E+00
    -13.084  0.0000E+00  0.4500E+00
    -12.778  0.0000E+00  0.4500E+00
    -12.472  0.0000E+00  0.4500E+00
    -12.166  0.0000E+00  0.4500E+00
    -11.860  0.0000E+00  0.4500E+00
    -11.554  0.0000E+00  0.4500E+00
    -11.248  0.0000E+00  0.4500E+00
    -10.942  0.0000E+00  0.4500E+00
    -10.636  0.0000E+00  0.4500E+00
    -10.330  0.0000E+00  0.4500E+00
    -10.024  0.0000E+00  0.4500E+00
     -9.718  0.0000E+00  0.4500E+00
     -9.411  0.0000E+00  0.4500E+00
     -9.105  0.0000E+00  0.4500E+00
     -8.799  0.0000E+00  0.4500E+00
     -8.493  0.0000E+00  0.4500E+00
     -8.187  0.0000E+00  0.4500E+00
     -7.881  0.0000E+00  0.4500E+00
     -7.575  0.0000E+00  0.4500E+00
     -7.269  0.0000E+00  0.4500E+00
     -6.963  0.0000E+00  0.4500E+00
     -6.657  0.0000E+00  0.4500E+00
     -6.351  0.0000E+00  0.4500E+00
     -6.045  0.0000E+00  0.4500E+00
     -5.739  0.0000E+00  0.4500E+00
     -5.433  0.0000E+00  0.4500E+00
     -5.127  0.0000E+00  0.4500E+00
     -4.821  0.0000E+00  0.4500E+00
     -4.515  0.0000E+00  0.4500E+00
     -4.209  0.0000E+00  0.4500E+00
     -3.903 -0.2749E-36  0.4500E+00
     -3.597 -0.1694E-25  0.4500E+00
     -3.291 -0.8907E-17  0.4500E+00
     -2.985 -0.4127E-10  0.4500E+00
     -2.679 -0.1464E-05  0.4500E+00
     -2.373 -0.2091E-03  0.4499E+00
     -2.067  0.4411E-02  0.4513E+00
     -1.761  0.1709E-02  0.4518E+00
     -1.454  0.4734E-02  0.4533E+00
     -1.148  0.1412E-01  0.4576E+00
     -0.842  0.7343E-03  0.4578E+00
     -0.536  0.1658E-01  0.4629E+00
     -0.230  0.1007E-01  0.4660E+00
      0.076  0.1413E-01  0.4703E+00
      0.382  0.1863E-01  0.4760E+00
      0.688  0.2359E-01  0.4832E+00
      0.994  0.2810E-01  0.4918E+00
      1.300  0.6139E-01  0.5106E+00
      1.606  0.1659E+00  0.5614E+00
      1.912  0.7316E-01  0.5837E+00
      2.218  0.9780E-01  0.6137E+00
      2.524  0.2458E+00  0.6889E+00
      2.830  0.7015E-01  0.7104E+00
      3.136  0.6769E-01  0.7311E+00
      3.442  0.7337E-01  0.7535E+00
      3.748  0.1099E+00  0.7872E+00
      4.054  0.1546E-01  0.7919E+00
      4.360  0.6388E-01  0.8115E+00
      4.666  0.2163E+00  0.8777E+00
      4.972  0.2479E+00  0.9535E+00
      5.278  0.2990E+00  0.1045E+01
      5.584  0.2198E+00  0.1112E+01
      5.890  0.2368E+00  0.1185E+01
      6.196  0.2469E+00  0.1260E+01
      6.502  0.2509E+00  0.1337E+01
      6.809  0.3245E+00  0.1436E+01
      7.115  0.1871E+00  0.1494E+01
      7.421  0.6436E-01  0.1513E+01
      7.727  0.3520E-01  0.1524E+01
      8.033  0.1163E-01  0.1528E+01
      8.339  0.4910E-01  0.1543E+01
      8.645  0.1369E-01  0.1547E+01
      8.951  0.3769E-01  0.1558E+01
      9.257  0.1747E-01  0.1564E+01
      9.563  0.8534E-02  0.1566E+01
      9.869  0.2553E-01  0.1574E+01
     10.175  0.3366E-01  0.1585E+01
     10.481  0.1337E-01  0.1589E+01
     10.787  0.4178E-01  0.1601E+01
     11.093  0.3012E-01  0.1611E+01
     11.399  0.3906E-02  0.1612E+01
     11.705  0.3262E-01  0.1622E+01
     12.011  0.1411E-02  0.1622E+01
     12.317 -0.1623E-02  0.1622E+01
     12.623  0.3735E-01  0.1633E+01
     12.929  0.2556E-01  0.1641E+01
     13.235 -0.1933E-02  0.1640E+01
     13.541  0.2535E-01  0.1648E+01
     13.847  0.4834E-01  0.1663E+01
     14.153  0.8659E-02  0.1666E+01
     14.459  0.1640E-01  0.1671E+01
     14.766  0.3289E-01  0.1681E+01
     15.072  0.2624E-01  0.1689E+01
     15.378  0.2505E-01  0.1696E+01
     15.684  0.3077E-01  0.1706E+01
     15.990  0.2756E-01  0.1714E+01
     16.296  0.2382E-01  0.1722E+01
     16.602  0.2136E-01  0.1728E+01
     16.908  0.3006E-01  0.1737E+01
     17.214  0.4011E-02  0.1738E+01
     17.520  0.2741E-01  0.1747E+01
     17.826  0.4121E-01  0.1759E+01
     18.132  0.3910E-01  0.1771E+01
     18.438  0.7281E-01  0.1794E+01
     18.744  0.1963E-01  0.1800E+01
     19.050  0.7132E-01  0.1822E+01
     19.356  0.9775E-02  0.1825E+01
     19.662  0.2744E-01  0.1833E+01
     19.968  0.6401E-02  0.1835E+01
     20.274  0.3438E-01  0.1845E+01
     20.580  0.9274E-02  0.1848E+01
     20.886 -0.4639E-03  0.1848E+01
     21.192 -0.3424E-06  0.1848E+01
     21.498 -0.3904E-04  0.1848E+01
     21.804  0.7142E-03  0.1848E+01
     22.110  0.5525E-02  0.1850E+01
     22.416 -0.1425E-03  0.1850E+01
     22.722 -0.6255E-05  0.1850E+01
     23.029 -0.4706E-09  0.1850E+01
     23.335 -0.2627E-15  0.1850E+01
     23.641  0.0000E+00  0.1850E+01
     23.947  0.0000E+00  0.1850E+01
     24.253  0.0000E+00  0.1850E+01
     24.559  0.0000E+00  0.1850E+01
     24.865  0.0000E+00  0.1850E+01
     25.171  0.0000E+00  0.1850E+01
     25.477  0.0000E+00  0.1850E+01
     25.783  0.0000E+00  0.1850E+01
     26.089  0.0000E+00  0.1850E+01
