    4    4   40    1
  0.1291127E+02  0.3724000E-09  0.3724000E-09  0.3724000E-09  0.5000000E-15
  1.000000000000000E-004
  CAR 
 unknown system                          
     62    108     37
 
  0.8333333E-01  0.8333333E-01  0.8333333E-01  0.9259259E-02
    1      -61.521108   1.000000
    2      -61.520716   1.000000
    3      -61.517967   1.000000
    4      -61.490782   1.000000
    5      -61.490510   1.000000
    6      -61.480694   1.000000
    7      -61.461524   1.000000
    8      -61.460272   1.000000
    9      -61.458039   1.000000
   10       -2.113910   1.000000
   11        1.064354   1.000000
   12        1.064536   1.000000
   13        2.024319   1.000000
   14        2.024553   1.000000
   15        2.068346   1.000000
   16        3.165609   1.000000
   17        4.829287   1.000000
   18        4.976157   1.000000
   19        4.977784   1.000000
   20        6.015545   1.000000
   21        6.017485   1.000000
   22        6.563558   1.000000
   23        6.564525   1.000000
   24        6.582454   1.000000
   25        6.651894   1.000000
   26        6.742596   1.000000
   27        6.743504   1.000000
   28        6.903453   1.000000
   29        7.081769   1.000000
   30        7.082709   1.000000
   31        9.919439  -0.000000
   32        9.921845  -0.000000
   33        9.946447  -0.000000
   34       16.760587   0.000000
   35       18.204096   0.000000
   36       18.209706   0.000000
   37       20.130670   0.000000
 
  0.2500000E+00  0.8333333E-01  0.8333333E-01  0.9259259E-02
    1      -61.519650   1.000000
    2      -61.514074   1.000000
    3      -61.511325   1.000000
    4      -61.491888   1.000000
    5      -61.489332   1.000000
    6      -61.478544   1.000000
    7      -61.471159   1.000000
    8      -61.466600   1.000000
    9      -61.460803   1.000000
   10       -1.392769   1.000000
   11        1.330108   1.000000
   12        1.412060   1.000000
   13        2.169402   1.000000
   14        2.205084   1.000000
   15        2.293135   1.000000
   16        3.347719   1.000000
   17        4.625389   1.000000
   18        5.081386   1.000000
   19        5.097970   1.000000
   20        5.553545   1.000000
   21        5.635072   1.000000
   22        5.775482   1.000000
   23        5.997988   1.000000
   24        6.136306   1.000000
   25        6.415606   1.000000
   26        6.420755   1.000000
   27        6.434767   1.000000
   28        6.838069   1.000000
   29        6.907443   1.000000
   30        7.083826   1.000000
   31        7.773806   1.000000
   32       11.492323  -0.000000
   33       11.593985  -0.000000
   34       17.522902   0.000000
   35       17.598914   0.000000
   36       18.066880   0.000000
   37       18.745550   0.000000
 
  0.4166667E+00  0.8333333E-01  0.8333333E-01  0.9259259E-02
    1      -61.510363   1.000000
    2      -61.503489   1.000000
    3      -61.499607   1.000000
    4      -61.497536   1.000000
    5      -61.490300   1.000000
    6      -61.488157   1.000000
    7      -61.480577   1.000000
    8      -61.467471   1.000000
    9      -61.466695   1.000000
   10       -0.224414   1.000000
   11        1.447349   1.000000
   12        1.655738   1.000000
   13        2.369105   1.000000
   14        2.415599   1.000000
   15        2.642314   1.000000
   16        3.707883   1.000000
   17        4.396349   1.000000
   18        4.531682   1.000000
   19        4.762462   1.000000
   20        4.775736   1.000000
   21        5.353636   1.000000
   22        5.521636   1.000000
   23        5.794466   1.000000
   24        5.963829   1.000000
   25        6.033755   1.000000
   26        6.078636   1.000000
   27        6.360663   1.000000
   28        6.422238   1.000000
   29        6.611189   1.000000
   30        6.876812   1.000000
   31        7.074628   1.000000
   32       13.450240  -0.000000
   33       13.637309  -0.000000
   34       15.567542   0.000000
   35       15.874032   0.000000
   36       18.351305   0.000000
   37       18.386223   0.000000
 
 -0.4166667E+00  0.8333333E-01  0.8333333E-01  0.9259259E-02
    1      -61.510362   1.000000
    2      -61.503521   1.000000
    3      -61.499626   1.000000
    4      -61.497472   1.000000
    5      -61.490279   1.000000
    6      -61.488195   1.000000
    7      -61.480580   1.000000
    8      -61.467470   1.000000
    9      -61.466687   1.000000
   10       -0.224515   1.000000
   11        1.447351   1.000000
   12        1.655720   1.000000
   13        2.369097   1.000000
   14        2.415526   1.000000
   15        2.642324   1.000000
   16        3.707842   1.000000
   17        4.396360   1.000000
   18        4.531706   1.000000
   19        4.762596   1.000000
   20        4.775738   1.000000
   21        5.353627   1.000000
   22        5.521516   1.000000
   23        5.794598   1.000000
   24        5.963859   1.000000
   25        6.033900   1.000000
   26        6.078600   1.000000
   27        6.360747   1.000000
   28        6.422224   1.000000
   29        6.611198   1.000000
   30        6.876804   1.000000
   31        7.074629   1.000000
   32       13.450798  -0.000000
   33       13.637749  -0.000000
   34       15.566578   0.000000
   35       15.873153   0.000000
   36       18.351236   0.000000
   37       18.385492   0.000000
 
 -0.2500000E+00  0.8333333E-01  0.8333333E-01  0.9259259E-02
    1      -61.519642   1.000000
    2      -61.514107   1.000000
    3      -61.511323   1.000000
    4      -61.491848   1.000000
    5      -61.489327   1.000000
    6      -61.478593   1.000000
    7      -61.471136   1.000000
    8      -61.466605   1.000000
    9      -61.460800   1.000000
   10       -1.392869   1.000000
   11        1.330063   1.000000
   12        1.412026   1.000000
   13        2.169358   1.000000
   14        2.204998   1.000000
   15        2.293135   1.000000
   16        3.347708   1.000000
   17        4.625227   1.000000
   18        5.081588   1.000000
   19        5.097858   1.000000
   20        5.553573   1.000000
   21        5.635085   1.000000
   22        5.775661   1.000000
   23        5.998061   1.000000
   24        6.136392   1.000000
   25        6.415475   1.000000
   26        6.420736   1.000000
   27        6.434931   1.000000
   28        6.838184   1.000000
   29        6.907507   1.000000
   30        7.083847   1.000000
   31        7.773969   1.000000
   32       11.492550  -0.000000
   33       11.594182  -0.000000
   34       17.522462   0.000000
   35       17.598055   0.000000
   36       18.065505   0.000000
   37       18.744987   0.000000
 
 -0.8333333E-01  0.8333333E-01  0.8333333E-01  0.9259259E-02
    1      -61.521098   1.000000
    2      -61.520703   1.000000
    3      -61.517976   1.000000
    4      -61.490682   1.000000
    5      -61.490631   1.000000
    6      -61.480729   1.000000
    7      -61.461514   1.000000
    8      -61.460279   1.000000
    9      -61.458020   1.000000
   10       -2.113947   1.000000
   11        1.064420   1.000000
   12        1.064437   1.000000
   13        2.024364   1.000000
   14        2.024411   1.000000
   15        2.068386   1.000000
   16        3.165606   1.000000
   17        4.828981   1.000000
   18        4.976642   1.000000
   19        4.977565   1.000000
   20        6.015677   1.000000
   21        6.017438   1.000000
   22        6.563905   1.000000
   23        6.564248   1.000000
   24        6.582520   1.000000
   25        6.651740   1.000000
   26        6.742550   1.000000
   27        6.743456   1.000000
   28        6.903515   1.000000
   29        7.081892   1.000000
   30        7.082806   1.000000
   31        9.919513  -0.000000
   32        9.921939  -0.000000
   33        9.946547  -0.000000
   34       16.760365   0.000000
   35       18.204820   0.000000
   36       18.208808   0.000000
   37       20.130567   0.000000
 
  0.8333333E-01  0.2500000E+00  0.8333333E-01  0.9259259E-02
    1      -61.519833   1.000000
    2      -61.514387   1.000000
    3      -61.511256   1.000000
    4      -61.491783   1.000000
    5      -61.488584   1.000000
    6      -61.478743   1.000000
    7      -61.471488   1.000000
    8      -61.465820   1.000000
    9      -61.461484   1.000000
   10       -1.393138   1.000000
   11        1.329915   1.000000
   12        1.411729   1.000000
   13        2.169281   1.000000
   14        2.205327   1.000000
   15        2.293102   1.000000
   16        3.347403   1.000000
   17        4.624442   1.000000
   18        5.082244   1.000000
   19        5.097790   1.000000
   20        5.553260   1.000000
   21        5.635167   1.000000
   22        5.775050   1.000000
   23        5.997261   1.000000
   24        6.137417   1.000000
   25        6.415354   1.000000
   26        6.420570   1.000000
   27        6.435660   1.000000
   28        6.838319   1.000000
   29        6.907001   1.000000
   30        7.085152   1.000000
   31        7.772468   1.000000
   32       11.493354  -0.000000
   33       11.594970  -0.000000
   34       17.524918   0.000000
   35       17.598203   0.000000
   36       18.063922   0.000000
   37       18.745667   0.000000
 
  0.2500000E+00  0.2500000E+00  0.8333333E-01  0.9259259E-02
    1      -61.531431   1.000000
    2      -61.517713   1.000000
    3      -61.512959   1.000000
    4      -61.498789   1.000000
    5      -61.486420   1.000000
    6      -61.480239   1.000000
    7      -61.473302   1.000000
    8      -61.463628   1.000000
    9      -61.458956   1.000000
   10       -0.718173   1.000000
   11        1.529838   1.000000
   12        1.776978   1.000000
   13        2.272573   1.000000
   14        2.295271   1.000000
   15        2.494031   1.000000
   16        3.472618   1.000000
   17        4.453015   1.000000
   18        4.872092   1.000000
   19        5.212194   1.000000
   20        5.224135   1.000000
   21        5.284865   1.000000
   22        5.289603   1.000000
   23        5.723452   1.000000
   24        6.147718   1.000000
   25        6.195278   1.000000
   26        6.248121   1.000000
   27        6.279122   1.000000
   28        6.729993   1.000000
   29        6.801144   1.000000
   30        6.830264   1.000000
   31        8.943627  -0.030676
   32        9.267327  -0.000497
   33       12.729496  -0.000000
   34       15.099060   0.000000
   35       18.164542   0.000000
   36       18.946077   0.000000
   37       19.020348   0.000000
 
  0.4166667E+00  0.2500000E+00  0.8333333E-01  0.9259259E-02
    1      -61.519582   1.000000
    2      -61.509249   1.000000
    3      -61.499909   1.000000
    4      -61.492998   1.000000
    5      -61.488419   1.000000
    6      -61.482965   1.000000
    7      -61.475603   1.000000
    8      -61.460372   1.000000
    9      -61.456224   1.000000
   10        0.378921   1.000000
   11        1.465418   1.000000
   12        2.052952   1.000000
   13        2.316787   1.000000
   14        2.495884   1.000000
   15        2.924364   1.000000
   16        3.655029   1.000000
   17        4.334462   1.000000
   18        4.528260   1.000000
   19        4.598953   1.000000
   20        4.818675   1.000000
   21        5.072830   1.000000
   22        5.437269   1.000000
   23        5.674180   1.000000
   24        5.872881   1.000000
   25        5.980989   1.000000
   26        5.992797   1.000000
   27        6.389270   1.000000
   28        6.650886   1.000000
   29        6.667873   1.000000
   30        6.700127   1.000000
   31        7.367515   1.000000
   32       10.679743  -0.000000
   33       12.539626  -0.000000
   34       14.692548   0.000000
   35       16.640284   0.000000
   36       18.861313   0.000000
   37       20.204209   0.000000
 
 -0.4166667E+00  0.2500000E+00  0.8333333E-01  0.9259259E-02
    1      -61.519476   1.000000
    2      -61.509406   1.000000
    3      -61.499941   1.000000
    4      -61.492967   1.000000
    5      -61.488454   1.000000
    6      -61.482890   1.000000
    7      -61.475593   1.000000
    8      -61.460373   1.000000
    9      -61.456225   1.000000
   10        0.378908   1.000000
   11        1.465440   1.000000
   12        2.052833   1.000000
   13        2.316646   1.000000
   14        2.495904   1.000000
   15        2.924497   1.000000
   16        3.654987   1.000000
   17        4.334461   1.000000
   18        4.528169   1.000000
   19        4.598929   1.000000
   20        4.818832   1.000000
   21        5.073040   1.000000
   22        5.436722   1.000000
   23        5.674162   1.000000
   24        5.873159   1.000000
   25        5.981111   1.000000
   26        5.992935   1.000000
   27        6.389399   1.000000
   28        6.650912   1.000000
   29        6.667877   1.000000
   30        6.700178   1.000000
   31        7.367279   1.000000
   32       10.679083  -0.000000
   33       12.540413  -0.000000
   34       14.694828   0.000000
   35       16.637071   0.000000
   36       18.859972   0.000000
   37       20.205760   0.000000
 
 -0.2500000E+00  0.2500000E+00  0.8333333E-01  0.9259259E-02
    1      -61.531456   1.000000
    2      -61.517765   1.000000
    3      -61.513004   1.000000
    4      -61.498724   1.000000
    5      -61.486313   1.000000
    6      -61.480250   1.000000
    7      -61.473302   1.000000
    8      -61.463621   1.000000
    9      -61.458947   1.000000
   10       -0.718204   1.000000
   11        1.529874   1.000000
   12        1.776747   1.000000
   13        2.272490   1.000000
   14        2.295365   1.000000
   15        2.494103   1.000000
   16        3.472584   1.000000
   17        4.452901   1.000000
   18        4.872212   1.000000
   19        5.212482   1.000000
   20        5.223878   1.000000
   21        5.285020   1.000000
   22        5.289251   1.000000
   23        5.723451   1.000000
   24        6.147650   1.000000
   25        6.195375   1.000000
   26        6.248408   1.000000
   27        6.279011   1.000000
   28        6.730170   1.000000
   29        6.801207   1.000000
   30        6.830478   1.000000
   31        8.943423  -0.030612
   32        9.266932  -0.000502
   33       12.730358  -0.000000
   34       15.100631   0.000000
   35       18.163415   0.000000
   36       18.944668   0.000000
   37       19.018703   0.000000
 
 -0.8333333E-01  0.2500000E+00  0.8333333E-01  0.9259259E-02
    1      -61.519873   1.000000
    2      -61.514400   1.000000
    3      -61.511251   1.000000
    4      -61.491855   1.000000
    5      -61.488445   1.000000
    6      -61.478748   1.000000
    7      -61.471488   1.000000
    8      -61.465812   1.000000
    9      -61.461497   1.000000
   10       -1.393152   1.000000
   11        1.329920   1.000000
   12        1.411668   1.000000
   13        2.169341   1.000000
   14        2.205142   1.000000
   15        2.293242   1.000000
   16        3.347397   1.000000
   17        4.624384   1.000000
   18        5.081585   1.000000
   19        5.098491   1.000000
   20        5.553232   1.000000
   21        5.635232   1.000000
   22        5.774956   1.000000
   23        5.997251   1.000000
   24        6.137430   1.000000
   25        6.415396   1.000000
   26        6.420619   1.000000
   27        6.435544   1.000000
   28        6.838301   1.000000
   29        6.907132   1.000000
   30        7.085359   1.000000
   31        7.772240   1.000000
   32       11.493510  -0.000000
   33       11.595111  -0.000000
   34       17.524667   0.000000
   35       17.598721   0.000000
   36       18.064802   0.000000
   37       18.746058   0.000000
 
  0.8333333E-01  0.4166667E+00  0.8333333E-01  0.9259259E-02
    1      -61.511020   1.000000
    2      -61.502956   1.000000
    3      -61.500312   1.000000
    4      -61.497978   1.000000
    5      -61.489247   1.000000
    6      -61.488006   1.000000
    7      -61.479087   1.000000
    8      -61.468714   1.000000
    9      -61.466898   1.000000
   10       -0.225171   1.000000
   11        1.446616   1.000000
   12        1.655408   1.000000
   13        2.368846   1.000000
   14        2.416334   1.000000
   15        2.642372   1.000000
   16        3.706944   1.000000
   17        4.395714   1.000000
   18        4.530584   1.000000
   19        4.761973   1.000000
   20        4.775228   1.000000
   21        5.353551   1.000000
   22        5.522035   1.000000
   23        5.794802   1.000000
   24        5.964324   1.000000
   25        6.034806   1.000000
   26        6.077877   1.000000
   27        6.361257   1.000000
   28        6.422496   1.000000
   29        6.611505   1.000000
   30        6.876373   1.000000
   31        7.076175   1.000000
   32       13.451205  -0.000000
   33       13.638270  -0.000000
   34       15.565783   0.000000
   35       15.872065   0.000000
   36       18.352683   0.000000
   37       18.388015   0.000000
 
  0.2500000E+00  0.4166667E+00  0.8333333E-01  0.9259259E-02
    1      -61.519711   1.000000
    2      -61.509629   1.000000
    3      -61.499576   1.000000
    4      -61.493718   1.000000
    5      -61.487772   1.000000
    6      -61.482286   1.000000
    7      -61.475360   1.000000
    8      -61.460645   1.000000
    9      -61.456719   1.000000
   10        0.378609   1.000000
   11        1.465298   1.000000
   12        2.052992   1.000000
   13        2.317062   1.000000
   14        2.495617   1.000000
   15        2.924373   1.000000
   16        3.654198   1.000000
   17        4.334114   1.000000
   18        4.527450   1.000000
   19        4.598630   1.000000
   20        4.818188   1.000000
   21        5.072580   1.000000
   22        5.437476   1.000000
   23        5.675121   1.000000
   24        5.873647   1.000000
   25        5.981443   1.000000
   26        5.992455   1.000000
   27        6.389357   1.000000
   28        6.651058   1.000000
   29        6.667252   1.000000
   30        6.700963   1.000000
   31        7.367460   1.000000
   32       10.680593  -0.000000
   33       12.540374  -0.000000
   34       14.692570   0.000000
   35       16.634632   0.000000
   36       18.860858   0.000000
   37       20.209041   0.000000
 
  0.4166667E+00  0.4166667E+00  0.8333333E-01  0.9259259E-02
    1      -61.518271   1.000000
    2      -61.511031   1.000000
    3      -61.498466   1.000000
    4      -61.489015   1.000000
    5      -61.484974   1.000000
    6      -61.479968   1.000000
    7      -61.473135   1.000000
    8      -61.460163   1.000000
    9      -61.455098   1.000000
   10        1.055118   1.000000
   11        1.527368   1.000000
   12        2.272137   1.000000
   13        2.389717   1.000000
   14        2.932744   1.000000
   15        3.232769   1.000000
   16        3.643424   1.000000
   17        4.259658   1.000000
   18        4.551903   1.000000
   19        4.603317   1.000000
   20        4.771029   1.000000
   21        4.941094   1.000000
   22        5.037748   1.000000
   23        5.591907   1.000000
   24        5.712948   1.000000
   25        5.766110   1.000000
   26        5.954369   1.000000
   27        6.244640   1.000000
   28        6.282448   1.000000
   29        6.405409   1.000000
   30        7.324089   1.000000
   31        8.231389   1.001189
   32        8.794506   0.247055
   33       10.271936  -0.000000
   34       16.193098   0.000000
   35       17.968487   0.000000
   36       18.287737   0.000000
   37       19.469302   0.000000
 
 -0.4166667E+00  0.4166667E+00  0.8333333E-01  0.9259259E-02
    1      -61.518292   1.000000
    2      -61.511089   1.000000
    3      -61.498431   1.000000
    4      -61.488990   1.000000
    5      -61.484981   1.000000
    6      -61.479949   1.000000
    7      -61.473117   1.000000
    8      -61.460149   1.000000
    9      -61.455094   1.000000
   10        1.055193   1.000000
   11        1.527257   1.000000
   12        2.271910   1.000000
   13        2.389584   1.000000
   14        2.932760   1.000000
   15        3.232883   1.000000
   16        3.643525   1.000000
   17        4.259441   1.000000
   18        4.551791   1.000000
   19        4.603277   1.000000
   20        4.771217   1.000000
   21        4.941528   1.000000
   22        5.037508   1.000000
   23        5.591641   1.000000
   24        5.713374   1.000000
   25        5.766114   1.000000
   26        5.954313   1.000000
   27        6.245088   1.000000
   28        6.282147   1.000000
   29        6.405483   1.000000
   30        7.324291   1.000000
   31        8.231071   1.001181
   32        8.794043   0.248694
   33       10.272547  -0.000000
   34       16.195491   0.000000
   35       17.967921   0.000000
   36       18.286990   0.000000
   37       19.467190   0.000000
 
 -0.2500000E+00  0.4166667E+00  0.8333333E-01  0.9259259E-02
    1      -61.519734   1.000000
    2      -61.509754   1.000000
    3      -61.499502   1.000000
    4      -61.493658   1.000000
    5      -61.487842   1.000000
    6      -61.482212   1.000000
    7      -61.475328   1.000000
    8      -61.460639   1.000000
    9      -61.456702   1.000000
   10        0.378569   1.000000
   11        1.465197   1.000000
   12        2.052821   1.000000
   13        2.316860   1.000000
   14        2.495651   1.000000
   15        2.924514   1.000000
   16        3.654169   1.000000
   17        4.334010   1.000000
   18        4.527427   1.000000
   19        4.598406   1.000000
   20        4.818384   1.000000
   21        5.072645   1.000000
   22        5.437684   1.000000
   23        5.675094   1.000000
   24        5.873834   1.000000
   25        5.981322   1.000000
   26        5.992564   1.000000
   27        6.389347   1.000000
   28        6.651095   1.000000
   29        6.667435   1.000000
   30        6.701181   1.000000
   31        7.367231   1.000000
   32       10.680213  -0.000000
   33       12.541086  -0.000000
   34       14.694273   0.000000
   35       16.635817   0.000000
   36       18.859497   0.000000
   37       20.206267   0.000000
 
 -0.8333333E-01  0.4166667E+00  0.8333333E-01  0.9259259E-02
    1      -61.511118   1.000000
    2      -61.503006   1.000000
    3      -61.500275   1.000000
    4      -61.497979   1.000000
    5      -61.489079   1.000000
    6      -61.488032   1.000000
    7      -61.479077   1.000000
    8      -61.468713   1.000000
    9      -61.466892   1.000000
   10       -0.225202   1.000000
   11        1.446570   1.000000
   12        1.655397   1.000000
   13        2.368849   1.000000
   14        2.415992   1.000000
   15        2.642685   1.000000
   16        3.706935   1.000000
   17        4.395538   1.000000
   18        4.530616   1.000000
   19        4.762361   1.000000
   20        4.774867   1.000000
   21        5.353386   1.000000
   22        5.522583   1.000000
   23        5.794436   1.000000
   24        5.964597   1.000000
   25        6.034792   1.000000
   26        6.077853   1.000000
   27        6.361272   1.000000
   28        6.422251   1.000000
   29        6.611561   1.000000
   30        6.876461   1.000000
   31        7.076300   1.000000
   32       13.451296  -0.000000
   33       13.638203  -0.000000
   34       15.566521   0.000000
   35       15.873179   0.000000
   36       18.352435   0.000000
   37       18.387711   0.000000
 
  0.8333333E-01 -0.4166667E+00  0.8333333E-01  0.9259259E-02
    1      -61.511020   1.000000
    2      -61.502851   1.000000
    3      -61.500324   1.000000
    4      -61.498089   1.000000
    5      -61.489284   1.000000
    6      -61.487928   1.000000
    7      -61.479086   1.000000
    8      -61.468717   1.000000
    9      -61.466925   1.000000
   10       -0.224982   1.000000
   11        1.446617   1.000000
   12        1.655444   1.000000
   13        2.368874   1.000000
   14        2.416454   1.000000
   15        2.642346   1.000000
   16        3.707013   1.000000
   17        4.395690   1.000000
   18        4.530565   1.000000
   19        4.761879   1.000000
   20        4.775098   1.000000
   21        5.353578   1.000000
   22        5.522298   1.000000
   23        5.794421   1.000000
   24        5.964182   1.000000
   25        6.034721   1.000000
   26        6.077809   1.000000
   27        6.361053   1.000000
   28        6.422623   1.000000
   29        6.611524   1.000000
   30        6.876375   1.000000
   31        7.076173   1.000000
   32       13.450149  -0.000000
   33       13.637452  -0.000000
   34       15.567600   0.000000
   35       15.873703   0.000000
   36       18.352804   0.000000
   37       18.389405   0.000000
 
  0.2500000E+00 -0.4166667E+00  0.8333333E-01  0.9259259E-02
    1      -61.519766   1.000000
    2      -61.509491   1.000000
    3      -61.499525   1.000000
    4      -61.493809   1.000000
    5      -61.487798   1.000000
    6      -61.482305   1.000000
    7      -61.475379   1.000000
    8      -61.460644   1.000000
    9      -61.456710   1.000000
   10        0.378897   1.000000
   11        1.465280   1.000000
   12        2.053114   1.000000
   13        2.317218   1.000000
   14        2.495598   1.000000
   15        2.924218   1.000000
   16        3.654332   1.000000
   17        4.334129   1.000000
   18        4.527517   1.000000
   19        4.598460   1.000000
   20        4.818003   1.000000
   21        5.072564   1.000000
   22        5.437852   1.000000
   23        5.674936   1.000000
   24        5.873420   1.000000
   25        5.981101   1.000000
   26        5.992311   1.000000
   27        6.389471   1.000000
   28        6.650964   1.000000
   29        6.667273   1.000000
   30        6.700922   1.000000
   31        7.367377   1.000000
   32       10.680198  -0.000000
   33       12.541083  -0.000000
   34       14.690744   0.000000
   35       16.637437   0.000000
   36       18.862348   0.000000
   37       20.206822   0.000000
 
  0.4166667E+00 -0.4166667E+00  0.8333333E-01  0.9259259E-02
    1      -61.518234   1.000000
    2      -61.510991   1.000000
    3      -61.498392   1.000000
    4      -61.489101   1.000000
    5      -61.485052   1.000000
    6      -61.479963   1.000000
    7      -61.473152   1.000000
    8      -61.460179   1.000000
    9      -61.455100   1.000000
   10        1.055329   1.000000
   11        1.527413   1.000000
   12        2.272346   1.000000
   13        2.389844   1.000000
   14        2.932652   1.000000
   15        3.232509   1.000000
   16        3.643675   1.000000
   17        4.259652   1.000000
   18        4.551890   1.000000
   19        4.603359   1.000000
   20        4.770842   1.000000
   21        4.941344   1.000000
   22        5.037387   1.000000
   23        5.591845   1.000000
   24        5.712968   1.000000
   25        5.765961   1.000000
   26        5.954067   1.000000
   27        6.245126   1.000000
   28        6.282199   1.000000
   29        6.405273   1.000000
   30        7.324214   1.000000
   31        8.231117   1.001182
   32        8.794098   0.248498
   33       10.272486  -0.000000
   34       16.191242   0.000000
   35       17.968485   0.000000
   36       18.287719   0.000000
   37       19.471950   0.000000
 
 -0.4166667E+00 -0.4166667E+00  0.8333333E-01  0.9259259E-02
    1      -61.518265   1.000000
    2      -61.511033   1.000000
    3      -61.498462   1.000000
    4      -61.489020   1.000000
    5      -61.484974   1.000000
    6      -61.479975   1.000000
    7      -61.473134   1.000000
    8      -61.460165   1.000000
    9      -61.455096   1.000000
   10        1.055118   1.000000
   11        1.527373   1.000000
   12        2.272144   1.000000
   13        2.389717   1.000000
   14        2.932737   1.000000
   15        3.232764   1.000000
   16        3.643429   1.000000
   17        4.259649   1.000000
   18        4.551907   1.000000
   19        4.603322   1.000000
   20        4.771014   1.000000
   21        4.941093   1.000000
   22        5.037754   1.000000
   23        5.591902   1.000000
   24        5.712941   1.000000
   25        5.766116   1.000000
   26        5.954357   1.000000
   27        6.244636   1.000000
   28        6.282481   1.000000
   29        6.405400   1.000000
   30        7.324090   1.000000
   31        8.231385   1.001189
   32        8.794507   0.247049
   33       10.271936  -0.000000
   34       16.193072   0.000000
   35       17.968507   0.000000
   36       18.287751   0.000000
   37       19.469308   0.000000
 
 -0.2500000E+00 -0.4166667E+00  0.8333333E-01  0.9259259E-02
    1      -61.519856   1.000000
    2      -61.509572   1.000000
    3      -61.499470   1.000000
    4      -61.493700   1.000000
    5      -61.487800   1.000000
    6      -61.482294   1.000000
    7      -61.475341   1.000000
    8      -61.460641   1.000000
    9      -61.456695   1.000000
   10        0.378584   1.000000
   11        1.465177   1.000000
   12        2.052949   1.000000
   13        2.316996   1.000000
   14        2.495630   1.000000
   15        2.924374   1.000000
   16        3.654211   1.000000
   17        4.333998   1.000000
   18        4.527532   1.000000
   19        4.598432   1.000000
   20        4.818230   1.000000
   21        5.072430   1.000000
   22        5.438225   1.000000
   23        5.675124   1.000000
   24        5.873541   1.000000
   25        5.981253   1.000000
   26        5.992354   1.000000
   27        6.389239   1.000000
   28        6.651041   1.000000
   29        6.667460   1.000000
   30        6.701135   1.000000
   31        7.367463   1.000000
   32       10.680873  -0.000000
   33       12.540300  -0.000000
   34       14.691971   0.000000
   35       16.639062   0.000000
   36       18.860851   0.000000
   37       20.204678   0.000000
 
 -0.8333333E-01 -0.4166667E+00  0.8333333E-01  0.9259259E-02
    1      -61.511122   1.000000
    2      -61.502945   1.000000
    3      -61.500314   1.000000
    4      -61.498006   1.000000
    5      -61.489089   1.000000
    6      -61.488008   1.000000