       N       E                     dE             d eps       ncg     rms          ort
DAV:   1     0.599442214182E+03    0.59944E+03   -0.31121E+04  3996   0.173E+03
DAV:   2     0.137980366637E+02   -0.58564E+03   -0.56433E+03  3996   0.535E+02
DAV:   3    -0.166908596624E+02   -0.30489E+02   -0.28771E+02  3996   0.129E+02
DAV:   4    -0.173676206676E+02   -0.67676E+00   -0.63749E+00  3996   0.159E+01
DAV:   5    -0.173815590074E+02   -0.13938E-01   -0.13933E-01  3996   0.210E+00
SDA:   6    -0.464442687611E+01    0.12737E+02   -0.13933E-01  3996   0.856E+02 0.000E+00
CGA:   7    -0.130399316606E+02   -0.83955E+01   -0.87494E+01  3996   0.497E+01-0.147E+01
CGA:   8    -0.138074562096E+02   -0.76752E+00   -0.76823E+00  3996   0.999E+00 0.300E-02
CGA:   9    -0.140957974239E+02   -0.28834E+00   -0.28791E+00  3996   0.657E+00 0.426E-02
CGA:  10    -0.142734646758E+02   -0.17767E+00   -0.17711E+00  3996   0.124E+00 0.609E-02
CGA:  11    -0.143003485607E+02   -0.26884E-01   -0.26884E-01  3996   0.318E-01-0.458E-04
CGA:  12    -0.143088049834E+02   -0.84564E-02   -0.84623E-02  3996   0.728E-02-0.992E-04
CGA:  13    -0.143105034340E+02   -0.16985E-02   -0.16978E-02  3996   0.186E-02 0.219E-04
CGA:  14    -0.143108263258E+02   -0.32289E-03   -0.32362E-03  3996   0.512E-03 0.205E-04
CGA:  15    -0.143109358044E+02   -0.10948E-03   -0.10942E-03  3996   0.134E-03 0.848E-05
CGA:  16    -0.143109767564E+02   -0.40952E-04   -0.41213E-04  3996   0.450E-04-0.278E-05
CGA:  17    -0.143109878476E+02   -0.11091E-04   -0.11140E-04  3996   0.196E-04-0.113E-05
CGA:  18    -0.143109921744E+02   -0.43268E-05   -0.43485E-05  3996   0.749E-05-0.137E-05
   1 F= -.14310992E+02 E0= -.14308919E+02  d E =-.143110E+02
       N       E                     dE             d eps       ncg     rms          ort
SDA:   1     0.126422194936E+04    0.12785E+04    0.00000E+00  3996   0.321E+04 0.000E+00
CGA:   2     0.315937441616E+03   -0.94828E+03   -0.99938E+03  3996   0.594E+03-0.218E+03
CGA:   3     0.220180986324E+03   -0.95756E+02   -0.98505E+02  3996   0.776E+02 0.674E+01
CGA:   4     0.195159310201E+03   -0.25022E+02   -0.23662E+02  3996   0.163E+02 0.115E+02
CGA:   5     0.188507335336E+03   -0.66520E+01   -0.64792E+01  3996   0.746E+01 0.109E+01
CGA:   6     0.186321043325E+03   -0.21863E+01   -0.23746E+01  3996   0.369E+01-0.173E+01
CGA:   7     0.185673732557E+03   -0.64731E+00   -0.52655E+00  3996   0.202E+01-0.505E+00
CGA:   8     0.185435573751E+03   -0.23816E+00   -0.27735E+00  3996   0.148E+01 0.155E+00
CGA:   9     0.185208697063E+03   -0.22688E+00   -0.16068E+00  3996   0.501E+00 0.767E+00
CGA:  10     0.185165999767E+03   -0.42697E-01   -0.70778E-01  3996   0.203E-01 0.366E-01
CGA:  11     0.185147035656E+03   -0.18964E-01    0.23308E-02  3996   0.268E-01 0.381E-01
CGA:  12     0.185074180584E+03   -0.72855E-01   -0.23564E-01  3996   0.733E-02 0.186E-02
CGA:  13     0.185071822134E+03   -0.23585E-02   -0.23578E-02  3996   0.300E-02 0.116E-04
CGA:  14     0.185070742523E+03   -0.10796E-02   -0.10732E-02  3996   0.629E-03 0.587E-04
CGA:  15     0.185070543702E+03   -0.19882E-03   -0.19777E-03  3996   0.198E-03 0.204E-04
CGA:  16     0.185070474219E+03   -0.69483E-04   -0.68895E-04  3996   0.767E-04 0.762E-05
CGA:  17     0.185070449447E+03   -0.24773E-04   -0.24843E-04  3996   0.198E-04 0.897E-06
CGA:  18     0.185070446077E+03   -0.33700E-05   -0.34785E-05  3996   0.486E-05 0.175E-05
   2 F= 0.18507045E+03 E0= 0.18506955E+03  d E =0.199381E+03
       N       E                     dE             d eps       ncg     rms          ort
SDA:   1     0.364140043839E+04    0.34563E+04    0.00000E+00  3996   0.370E+05 0.000E+00
CGA:   2     0.347882590915E+04   -0.16257E+03   -0.54309E+04  3996   0.286E+05 0.252E+05
CGA:   3     0.170808135059E+04   -0.17707E+04   -0.42963E+04  3996   0.150E+05 0.184E+05
CGA:   4     0.690290176474E+03   -0.10178E+04   -0.20367E+04  3996   0.254E+04 0.417E+04
CGA:   5     0.311028956199E+03   -0.37926E+03   -0.47684E+03  3996   0.100E+04 0.366E+03
CGA:   6     0.943394573301E+02   -0.21669E+03   -0.22461E+03  3996   0.326E+03 0.874E+02
CGA:   7     0.361207915204E+02   -0.58219E+02   -0.59096E+02  3996   0.966E+02 0.106E+02
CGA:   8     0.115985916803E+02   -0.24522E+02   -0.24496E+02  3996   0.551E+02-0.283E+00
CGA:   9    -0.114249450149E+01   -0.12741E+02   -0.12730E+02  3996   0.249E+02 0.146E+01
CGA:  10    -0.744353173856E+01   -0.63010E+01   -0.62982E+01  3996   0.109E+02-0.532E-01
CGA:  11    -0.108142210614E+02   -0.33707E+01   -0.34437E+01  3996   0.814E+01-0.898E+00
CGA:  12    -0.128380377922E+02   -0.20238E+01   -0.20529E+01  3996   0.389E+01-0.427E+00
CGA:  13    -0.139904237524E+02   -0.11524E+01   -0.11647E+01  3996   0.264E+01-0.972E-01
CGA:  14    -0.146311093030E+02   -0.64069E+00   -0.64196E+00  3996   0.102E+01-0.745E-01
CGA:  15    -0.149747787982E+02   -0.34367E+00   -0.34852E+00  3996   0.776E+00-0.376E-01
CGA:  16    -0.152278813826E+02   -0.25310E+00   -0.24929E+00  3996   0.627E+00-0.680E-01
CGA:  17    -0.156179501440E+02   -0.39007E+00    0.19788E+00  3996   0.850E+00 0.536E+00
CGA:  18    -0.158226584363E+02   -0.20471E+00   -0.20619E+00  3996   0.339E+00 0.917E-01
CGA:  19    -0.150451004111E+02    0.77756E+00    0.18806E+01  3996   0.414E+01-0.938E+00
CGA:  20    -0.158398245992E+02   -0.79472E+00   -0.76872E+00  3996   0.109E+01 0.874E-01
CGA:  21    -0.161611855933E+02   -0.32136E+00   -0.32155E+00  3996   0.238E+00-0.319E-03
CGA:  22    -0.162020941454E+02   -0.40909E-01   -0.41098E-01  3996   0.596E-01-0.803E-03
CGA:  23    -0.162280915837E+02   -0.25997E-01   -0.25987E-01  3996   0.221E-01 0.344E-03
CGA:  24    -0.162360954240E+02   -0.80038E-02   -0.79924E-02  3996   0.726E-02-0.335E-04
CGA:  25    -0.162383231581E+02   -0.22277E-02   -0.22215E-02  3996   0.479E-02-0.102E-04
CGA:  26    -0.162392061830E+02   -0.88302E-03   -0.87321E-03  3996   0.728E-03 0.162E-04
CGA:  27    -0.162395156956E+02   -0.30951E-03   -0.30992E-03  3996   0.156E-03-0.117E-04
CGA:  28    -0.162395503484E+02   -0.34653E-04   -0.34764E-04  3996   0.693E-04 0.200E-05
CGA:  29    -0.162395704377E+02   -0.20089E-04   -0.19966E-04  3996   0.874E-05-0.120E-05
CGA:  30    -0.162395716271E+02   -0.11894E-05   -0.11682E-05  3996   0.132E-05-0.250E-06
   3 F= -.16239572E+02 E0= -.16237432E+02  d E =-.192858E+01
       N       E                     dE             d eps       ncg     rms          ort
SDA:   1    -0.161694583486E+02    0.70112E-01    0.00000E+00  3996   0.774E+00 0.000E+00
CGA:   2    -0.162517018524E+02   -0.82244E-01   -0.81784E-01  3996   0.375E-01 0.400E-02
CGA:   3    -0.162575482501E+02   -0.58464E-02   -0.58508E-02  3996   0.431E-02 0.196E-04
CGA:   4    -0.162585440727E+02   -0.99582E-03   -0.99936E-03  3996   0.191E-02 0.311E-04
CGA:   5    -0.162591150136E+02   -0.57094E-03   -0.57153E-03  3996   0.642E-03 0.152E-04
CGA:   6    -0.162593167950E+02   -0.20178E-03   -0.20178E-03  3996   0.395E-03-0.779E-07
CGA:   7    -0.162594244606E+02   -0.10767E-03   -0.10781E-03  3996   0.858E-04 0.237E-05
CGA:   8    -0.162594461131E+02   -0.21653E-04   -0.21507E-04  3996   0.229E-04-0.185E-05
CGA:   9    -0.162594526648E+02   -0.65517E-05   -0.65168E-05  3996   0.633E-05-0.108E-05
   4 F= -.16259453E+02 E0= -.16257415E+02  d E =-.194846E+01
       N       E                     dE             d eps       ncg     rms          ort
SDA:   1    -0.160159976512E+02    0.24345E+00    0.00000E+00  3996   0.220E+01 0.000E+00
CGA:   2    -0.162507882219E+02   -0.23479E+00   -0.23293E+00  3996   0.106E+00 0.144E-01
CGA:   3    -0.162674034983E+02   -0.16615E-01   -0.16623E-01  3996   0.121E-01 0.429E-04
CGA:   4    -0.162702236896E+02   -0.28202E-02   -0.28248E-02  3996   0.538E-02 0.622E-04
CGA:   5    -0.162718227381E+02   -0.15990E-02   -0.15991E-02  3996   0.181E-02 0.300E-04
CGA:   6    -0.162723922724E+02   -0.56953E-03   -0.56952E-03  3996   0.112E-02 0.628E-06
CGA:   7    -0.162726962085E+02   -0.30394E-03   -0.30406E-03  3996   0.241E-03 0.479E-05
CGA:   8    -0.162727566979E+02   -0.60489E-04   -0.60333E-04  3996   0.632E-04-0.337E-05
CGA:   9    -0.162727747621E+02   -0.18064E-04   -0.18058E-04  3996   0.169E-04-0.197E-05
CGA:  10    -0.162727784062E+02   -0.36441E-05   -0.37914E-05  3996   0.360E-05 0.241E-05
   5 F= -.16272778E+02 E0= -.16270797E+02  d E =-.196179E+01
       N       E                     dE             d eps       ncg     rms          ort
SDA:   1    -0.162725858023E+02    0.18896E-03    0.00000E+00  3996   0.180E-02 0.000E+00
CGA:   2    -0.162727736698E+02   -0.18787E-03   -0.18948E-03  3996   0.839E-04 0.933E-05
CGA:   3    -0.162727864495E+02   -0.12780E-04   -0.12954E-04  3996   0.910E-05 0.142E-05
CGA:   4    -0.162727880248E+02   -0.15754E-05   -0.17171E-05  3996   0.284E-05 0.168E-05
   6 F= -.16272788E+02 E0= -.16270809E+02  d E =-.196180E+01
       N       E                     dE             d eps       ncg     rms          ort
SDA:   1    -0.811712435979E+01    0.81557E+01    0.00000E+00  3996   0.268E+02 0.000E+00
CGA:   2    -0.124745554178E+02   -0.43574E+01   -0.44047E+01  3996   0.101E+02-0.254E-01
CGA:   3    -0.152081428909E+02   -0.27336E+01   -0.27359E+01  3996   0.393E+01-0.105E+00
CGA:   4    -0.159626273515E+02   -0.75448E+00   -0.75999E+00  3996   0.111E+01 0.172E-01
CGA:   5    -0.161795948244E+02   -0.21697E+00   -0.21581E+00  3996   0.410E+00-0.315E-02
CGA:   6    -0.162668242767E+02   -0.87229E-01   -0.87440E-01  3996   0.176E+00 0.182E-02
CGA:   7    -0.163169565250E+02   -0.50132E-01   -0.50267E-01  3996   0.769E-01-0.257E-02
CGA:   8    -0.163348695404E+02   -0.17913E-01   -0.17920E-01  3996   0.249E-01 0.196E-03
CGA:   9    -0.163409323702E+02   -0.60628E-02   -0.60600E-02  3996   0.955E-02-0.150E-03
CGA:  10    -0.163430619665E+02   -0.21296E-02   -0.21305E-02  3996   0.284E-02 0.907E-05
CGA:  11    -0.163437232810E+02   -0.66131E-03   -0.66108E-03  3996   0.991E-03-0.556E-05
CGA:  12    -0.163439705458E+02   -0.24726E-03   -0.24726E-03  3996   0.383E-03 0.385E-05
CGA:  13    -0.163440491866E+02   -0.78641E-04   -0.78611E-04  3996   0.130E-03-0.220E-07
CGA:  14    -0.163440765788E+02   -0.27392E-04   -0.27393E-04  3996   0.420E-04 0.373E-06
CGA:  15    -0.163440870692E+02   -0.10490E-04   -0.10488E-04  3996   0.143E-04 0.827E-06
CGA:  16    -0.163440909208E+02   -0.38516E-05   -0.38485E-05  3996   0.535E-05 0.320E-06
   7 F= -.16344091E+02 E0= -.16342210E+02  d E =-.713029E-01
       N       E                     dE             d eps       ncg     rms          ort
SDA:   1    -0.163437608706E+02    0.32620E-03    0.00000E+00  3996   0.109E-02 0.000E+00
CGA:   2    -0.163439432846E+02   -0.18241E-03   -0.18247E-03  3996   0.419E-03 0.773E-06
CGA:   3    -0.163440600343E+02   -0.11675E-03   -0.11675E-03  3996   0.142E-03 0.689E-07
CGA:   4    -0.163440914068E+02   -0.31373E-04   -0.31374E-04  3996   0.351E-04 0.880E-07
CGA:   5    -0.163440995011E+02   -0.80942E-05   -0.80934E-05  3996   0.119E-04-0.664E-07
   8 F= -.16344100E+02 E0= -.16342221E+02  d E =-.713115E-01
       N       E                     dE             d eps       ncg     rms          ort
SDA:   1    -0.136134427572E+02    0.27306E+01    0.00000E+00  3996   0.108E+02 0.000E+00
CGA:   2    -0.151070662748E+02   -0.14936E+01   -0.15079E+01  3996   0.292E+01-0.331E-01
CGA:   3    -0.159859214011E+02   -0.87886E+00   -0.88006E+00  3996   0.128E+01-0.137E-01
CGA:   4    -0.162534790558E+02   -0.26756E+00   -0.26762E+00  3996   0.241E+00 0.609E-03
CGA:   5    -0.163138997671E+02   -0.60421E-01   -0.60418E-01  3996   0.866E-01 0.179E-03
CGA:   6    -0.163397074632E+02   -0.25808E-01   -0.25808E-01  3996   0.423E-01-0.115E-04
CGA:   7    -0.163497887289E+02   -0.10081E-01   -0.10081E-01  3996   0.247E-01-0.410E-04
CGA:   8    -0.163545566321E+02   -0.47679E-02   -0.47674E-02  3996   0.643E-02 0.441E-06
CGA:   9    -0.163562214195E+02   -0.16648E-02   -0.16650E-02  3996   0.133E-02-0.991E-05
CGA:  10    -0.163565924032E+02   -0.37098E-03   -0.37155E-03  3996   0.284E-03-0.142E-04
CGA:  11    -0.163566638171E+02   -0.71414E-04   -0.71416E-04  3996   0.150E-03 0.135E-06
CGA:  12    -0.163566880903E+02   -0.24273E-04   -0.24394E-04  3996   0.442E-04 0.169E-05
CGA:  13    -0.163566987788E+02   -0.10689E-04   -0.10689E-04  3996   0.124E-04 0.532E-06
CGA:  14    -0.163567023535E+02   -0.35747E-05   -0.36118E-05  3996   0.539E-05-0.678E-06
   9 F= -.16356702E+02 E0= -.16354739E+02  d E =-.126029E-01
       N       E                     dE             d eps       ncg     rms          ort
SDA:   1    -0.162413055246E+02    0.11539E+00    0.00000E+00  3996   0.428E+00 0.000E+00
CGA:   2    -0.163039940139E+02   -0.62688E-01   -0.62608E-01  3996   0.127E+00 0.265E-03
CGA:   3    -0.163420131875E+02   -0.38019E-01   -0.38007E-01  3996   0.535E-01 0.133E-03
CGA:   4    -0.163532738144E+02   -0.11261E-01   -0.11261E-01  3996   0.102E-01 0.766E-05
CGA:   5    -0.163558635102E+02   -0.25897E-02   -0.25900E-02  3996   0.369E-02-0.166E-04
CGA:   6    -0.163569953095E+02   -0.11318E-02   -0.11317E-02  3996   0.161E-02 0.231E-05
CGA:   7    -0.163574874683E+02   -0.49216E-03   -0.49213E-03  3996   0.629E-03 0.275E-06
CGA:   8    -0.163576351703E+02   -0.14770E-03   -0.14768E-03  3996   0.207E-03-0.242E-05
CGA:   9    -0.163576753307E+02   -0.40160E-04   -0.40253E-04  3996   0.590E-04 0.186E-05
CGA:  10    -0.163576871775E+02   -0.11847E-04   -0.11923E-04  3996   0.149E-04 0.183E-05
CGA:  11    -0.163576905784E+02   -0.34009E-05   -0.34008E-05  3996   0.585E-05-0.358E-07
  10 F= -.16357691E+02 E0= -.16355730E+02  d E =-.135911E-01
       N       E                     dE             d eps       ncg     rms          ort
SDA:   1    -0.154160162493E+02    0.94167E+00    0.00000E+00  3996   0.356E+01 0.000E+00
CGA:   2    -0.159358929263E+02   -0.51988E+00   -0.51766E+00  3996   0.101E+01 0.457E-02
CGA:   3    -0.162351273250E+02   -0.29923E+00   -0.29896E+00  3996   0.431E+00 0.306E-02
CGA:   4    -0.163287176443E+02   -0.93590E-01   -0.93590E-01  3996   0.857E-01 0.346E-04
CGA:   5    -0.163500346731E+02   -0.21317E-01   -0.21318E-01  3996   0.293E-01-0.602E-04
CGA:   6    -0.163590664993E+02   -0.90318E-02   -0.90318E-02  3996   0.129E-01 0.245E-05
CGA:   7    -0.163631630336E+02   -0.40965E-02   -0.40968E-02  3996   0.473E-02-0.294E-05
CGA:   8    -0.163643143946E+02   -0.11514E-02   -0.11514E-02  3996   0.157E-02-0.894E-05
CGA:   9    -0.163646112165E+02   -0.29682E-03   -0.29714E-03  3996   0.499E-03 0.561E-05
CGA:  10    -0.163647136367E+02   -0.10242E-03   -0.10264E-03  3996   0.965E-04 0.612E-05
CGA:  11    -0.163647406100E+02   -0.26973E-04   -0.26983E-04  3996   0.383E-04-0.173E-06
CGA:  12    -0.163647483819E+02   -0.77719E-05   -0.77664E-05  3996   0.156E-04-0.116E-06
  11 F= -.16364748E+02 E0= -.16362859E+02  d E =-.705780E-02
       N       E                     dE             d eps       ncg     rms          ort
SDA:   1    -0.163574851186E+02    0.72555E-02    0.00000E+00  3996   0.285E-01 0.000E+00
CGA:   2    -0.163615245286E+02   -0.40394E-02   -0.40385E-02  3996   0.771E-02-0.312E-04
CGA:   3    -0.163638244819E+02   -0.23000E-02   -0.23001E-02  3996   0.339E-02-0.227E-05
CGA:   4    -0.163645583147E+02   -0.73383E-03   -0.73375E-03  3996   0.678E-03-0.418E-05
CGA:   5    -0.163647245539E+02   -0.16624E-03   -0.16619E-03  3996   0.228E-03 0.496E-05
CGA:   6    -0.163647957576E+02   -0.71204E-04   -0.71262E-04  3996   0.104E-03-0.772E-06
CGA:   7    -0.163648259207E+02   -0.30163E-04   -0.30165E-04  3996   0.489E-04-0.261E-07
CGA:   8    -0.163648351416E+02   -0.92209E-05   -0.92392E-05  3996   0.164E-04 0.360E-06
  12 F= -.16364835E+02 E0= -.16362939E+02  d E =-.714456E-02
       N       E                     dE             d eps       ncg     rms          ort
SDA:   1    -0.163385206493E+02    0.26305E-01    0.00000E+00  3996   0.876E-01 0.000E+00
CGA:   2    -0.163534510090E+02   -0.14930E-01   -0.14932E-01  3996   0.341E-01-0.873E-05
CGA:   3    -0.163626795015E+02   -0.92285E-02   -0.92286E-02  3996   0.101E-01-0.129E-05
CGA:   4    -0.163648202754E+02   -0.21408E-02   -0.21408E-02  3996   0.235E-02-0.872E-06
CGA:   5    -0.163654214134E+02   -0.60114E-03   -0.60110E-03  3996   0.824E-03 0.187E-05
CGA:   6    -0.163656677613E+02   -0.24635E-03   -0.24637E-03  3996   0.398E-03-0.418E-06
CGA:   7    -0.163657721654E+02   -0.10440E-03   -0.10441E-03  3996   0.176E-03-0.186E-06
CGA:   8    -0.163658081758E+02   -0.36010E-04   -0.36023E-04  3996   0.592E-04 0.352E-06
CGA:   9    -0.163658215682E+02   -0.13392E-04   -0.13389E-04  3996   0.172E-04-0.256E-06
CGA:  10    -0.163658253215E+02   -0.37533E-05   -0.37462E-05  3996   0.559E-05-0.361E-06
  13 F= -.16365825E+02 E0= -.16363910E+02  d E =-.990180E-03
       N       E                     dE             d eps       ncg     rms          ort
SDA:   1    -0.163361794205E+02    0.29642E-01    0.00000E+00  3996   0.961E-01 0.000E+00
CGA:   2    -0.163525661115E+02   -0.16387E-01   -0.16388E-01  3996   0.374E-01-0.762E-05
CGA:   3    -0.163626990245E+02   -0.10133E-01   -0.10133E-01  3996   0.111E-01-0.170E-05
CGA:   4    -0.163650463852E+02   -0.23474E-02   -0.23474E-02  3996   0.257E-02-0.993E-06
CGA:   5    -0.163657041778E+02   -0.65779E-03   -0.65775E-03  3996   0.906E-03 0.193E-05
CGA:   6    -0.163659758422E+02   -0.27166E-03   -0.27168E-03  3996   0.439E-03-0.343E-06
CGA:   7    -0.163660902283E+02   -0.11439E-03   -0.11439E-03  3996   0.197E-03-0.216E-06
CGA:   8    -0.163661299610E+02   -0.39733E-04   -0.39747E-04  3996   0.657E-04 0.328E-06
CGA:   9    -0.163661449675E+02   -0.15006E-04   -0.15004E-04  3996   0.187E-04-0.266E-06
CGA:  10    -0.163661490940E+02   -0.41265E-05   -0.41214E-05  3996   0.608E-05-0.383E-06
  14 F= -.16366149E+02 E0= -.16364230E+02  d E =-.131395E-02
       N       E                     dE             d eps       ncg     rms          ort
SDA:   1    -0.163560175330E+02    0.10127E-01    0.00000E+00  3996   0.354E-01 0.000E+00
CGA:   2    -0.163614227284E+02   -0.54052E-02   -0.54050E-02  3996   0.118E-01-0.245E-04
CGA:   3    -0.163650304968E+02   -0.36078E-02   -0.36080E-02  3996   0.468E-02-0.220E-05
CGA:   4    -0.163659916982E+02   -0.96120E-03   -0.96114E-03  3996   0.899E-03-0.229E-05
CGA:   5    -0.163662233597E+02   -0.23166E-03   -0.23156E-03  3996   0.336E-03 0.415E-05
CGA:   6    -0.163663237924E+02   -0.10043E-03   -0.10047E-03  3996   0.152E-03-0.615E-06
CGA:   7    -0.163663633092E+02   -0.39517E-04   -0.39520E-04  3996   0.692E-04-0.153E-06
CGA:   8    -0.163663769279E+02   -0.13619E-04   -0.13635E-04  3996   0.224E-04 0.386E-06
CGA:   9    -0.163663820779E+02   -0.51500E-05   -0.51485E-05  3996   0.649E-05-0.406E-06
  15 F= -.16366382E+02 E0= -.16364460E+02  d E =-.232984E-03
       N       E                     dE             d eps       ncg     rms          ort
SDA:   1    -0.163527803613E+02    0.13597E-01    0.00000E+00  3996   0.470E-01 0.000E+00
CGA:   2    -0.163599365054E+02   -0.71561E-02   -0.71566E-02  3996   0.156E-01-0.287E-04
CGA:   3    -0.163647133783E+02   -0.47769E-02   -0.47772E-02  3996   0.621E-02-0.318E-05
CGA:   4    -0.163659897498E+02   -0.12764E-02   -0.12763E-02  3996   0.118E-02-0.296E-05
CGA:   5    -0.163662957464E+02   -0.30600E-03   -0.30588E-03  3996   0.444E-03 0.470E-05
CGA:   6    -0.163664302993E+02   -0.13455E-03   -0.13460E-03  3996   0.193E-03-0.718E-06
CGA:   7    -0.163664844404E+02   -0.54141E-04   -0.54148E-04  3996   0.731E-04-0.136E-06
CGA:   8    -0.163665015198E+02   -0.17079E-04   -0.17082E-04  3996   0.220E-04 0.495E-06
CGA:   9    -0.163665070189E+02   -0.54991E-05   -0.55059E-05  3996   0.647E-05-0.861E-06
  16 F= -.16366507E+02 E0= -.16364581E+02  d E =-.357925E-03
       N       E                     dE             d eps       ncg     rms          ort
SDA:   1    -0.163602860746E+02    0.62154E-02    0.00000E+00  3996   0.269E-01 0.000E+00
CGA:   2    -0.163638851428E+02   -0.35991E-02   -0.36008E-02  3996   0.629E-02 0.397E-04
CGA:   3    -0.163657678013E+02   -0.18827E-02   -0.18823E-02  3996   0.301E-02 0.496E-05
CGA:   4    -0.163664317593E+02   -0.66396E-03   -0.66405E-03  3996   0.563E-03 0.490E-05
CGA:   5    -0.163665676301E+02   -0.13587E-03   -0.13590E-03  3996   0.206E-03-0.587E-05
CGA:   6    -0.163666294745E+02   -0.61844E-04   -0.61809E-04  3996   0.860E-04 0.541E-06
CGA:   7    -0.163666514107E+02   -0.21936E-04   -0.21933E-04  3996   0.420E-04 0.270E-06
CGA:   8    -0.163666608702E+02   -0.94594E-05   -0.94516E-05  3996   0.129E-04-0.508E-06
  17 F= -.16366661E+02 E0= -.16364740E+02  d E =-.153851E-03
