 vasp.5.4.4.18Apr17-6-g9f103f2a35 (build Oct  7 2025 21:22:07) complex          
  
 executed on             LinuxIFC date 2025.11.06  16:11:53
 running on    1 total cores
 distrk:  each k-point on    1 cores,    1 groups
 distr:  one band on NCORES_PER_BAND=   1 cores,    1 groups


--------------------------------------------------------------------------------------------------------


 INCAR:
 POTCAR:   PAW_PBE Au 06Sep2000                   
 POTCAR:   PAW_PBE Cu_pv 06Sep2000                
 POTCAR:   PAW_PBE Au 06Sep2000                   
   VRHFIN =Au: s1d10                                                            
   LEXCH  = PE                                                                  
   EATOM  =   926.0567 eV,   68.0632 Ry                                         
                                                                                
   TITEL  = PAW_PBE Au 06Sep2000                                                
   LULTRA =        F    use ultrasoft PP ?                                      
   IUNSCR =        1    unscreen: 0-lin 1-nonlin 2-no                           
   RPACOR =    2.330    partial core radius                                     
   POMASS =  196.966; ZVAL   =   11.000    mass and valenz                      
   RCORE  =    2.500    outmost cutoff radius                                   
   RWIGS  =    2.840; RWIGS  =    1.503    wigner-seitz radius (au A)           
   ENMAX  =  229.948; ENMIN  =  172.461 eV                                      
   RCLOC  =    1.964    cutoff for local pot                                    
   LCOR   =        T    correct aug charges                                     
   LPAW   =        T    paw PP                                                  
   EAUG   =  356.670                                                            
   DEXC   =    -.025                                                            
   RMAX   =    3.041    core radius for proj-oper                               
   RAUG   =    1.300    factor for augmentation sphere                          
   RDEP   =    2.598    radius for radial grids                                 
   QCUT   =   -4.111; QGAM   =    8.222    optimization parameters              
                                                                                
   Description                                                                  
     l     E      TYP  RCUT    TYP  RCUT                                        
     2   .000     23  2.500                                                     
     2   .000     23  2.500                                                     
     0   .000     23  2.500                                                     
     0   .000     23  2.500                                                     
     1  -.200     23  2.500                                                     
     1   .000     23  2.500                                                     
     3   .000      7   .000                                                     
  local pseudopotential read in
  partial core-charges read in
  atomic valenz-charges read in
  non local Contribution for L=           2  read in
    real space projection operators read in
  non local Contribution for L=           2  read in
    real space projection operators read in
  non local Contribution for L=           0  read in
    real space projection operators read in
  non local Contribution for L=           0  read in
    real space projection operators read in
  non local Contribution for L=           1  read in
    real space projection operators read in
  non local Contribution for L=           1  read in
    real space projection operators read in
    PAW grid and wavefunctions read in
 
   number of l-projection  operators is LMAX  =           6
   number of lm-projection operators is LMMAX =          18
 
 POTCAR:   PAW_PBE Cu_pv 06Sep2000                
   VRHFIN =Cu: d10 p1                                                           
   LEXCH  = PE                                                                  
   EATOM  =  4119.1903 eV,  302.7519 Ry                                         
                                                                                
   TITEL  = PAW_PBE Cu_pv 06Sep2000                                             
   LULTRA =        F    use ultrasoft PP ?                                      
   IUNSCR =        1    unscreen: 0-lin 1-nonlin 2-no                           
   RPACOR =    1.500    partial core radius                                     
   POMASS =   63.546; ZVAL   =   17.000    mass and valenz                      
   RCORE  =    2.000    outmost cutoff radius                                   
   RWIGS  =    2.000; RWIGS  =    1.058    wigner-seitz radius (au A)           
   ENMAX  =  368.605; ENMIN  =  276.454 eV                                      
   RCLOC  =    1.304    cutoff for local pot                                    
   LCOR   =        T    correct aug charges                                     
   LPAW   =        T    paw PP                                                  
   EAUG   =  758.233                                                            
   DEXC   =    -.002                                                            
   RMAX   =    2.402    core radius for proj-oper                               
   RAUG   =    1.300    factor for augmentation sphere                          
   RDEP   =    2.025    radius for radial grids                                 
   QCUT   =   -5.205; QGAM   =   10.410    optimization parameters              
                                                                                
   Description                                                                  
     l     E      TYP  RCUT    TYP  RCUT                                        
     1   .000     23  1.700                                                     
     1  -.100     23  1.700                                                     
     2   .000     23  2.000                                                     
     2   .000     23  2.000                                                     
     0   .000     23  1.800                                                     
     0   .000     23  1.800                                                     
     3   .000      7   .000                                                     
  local pseudopotential read in
  partial core-charges read in
  atomic valenz-charges read in
  non local Contribution for L=           1  read in
    real space projection operators read in
  non local Contribution for L=           1  read in
    real space projection operators read in
  non local Contribution for L=           2  read in
    real space projection operators read in
  non local Contribution for L=           2  read in
    real space projection operators read in
  non local Contribution for L=           0  read in
    real space projection operators read in
  non local Contribution for L=           0  read in
    real space projection operators read in
    PAW grid and wavefunctions read in
 
   number of l-projection  operators is LMAX  =           6
   number of lm-projection operators is LMMAX =          18
 

 ----------------------------------------------------------------------------- 
|                                                                             |
|  ADVICE TO THIS USER RUNNING 'VASP/VAMP'   (HEAR YOUR MASTER'S VOICE ...):  |
|                                                                             |
|      You have a (more or less) 'small supercell' and for smaller cells      |
|      it is recommended  to use the reciprocal-space projection scheme!      |
|      The real space optimization is not  efficient for small cells and it   |
|      is also less accurate ...                                              |
|      Therefore set LREAL=.FALSE. in the  INCAR file                         |
|                                                                             |
 ----------------------------------------------------------------------------- 

 Optimization of the real space projectors (new method)

 maximal supplied QI-value         = 15.12
 optimisation between [QCUT,QGAM] = [  8.77, 17.69] = [ 21.53, 87.61] Ry 
 Optimized for a Real-space Cutoff    1.74 Angstroem

   l    n(q)    QCUT    max X(q) W(low)/X(q) W(high)/X(q)  e(spline) 
   2      8     8.768     3.714    0.44E-04    0.39E-04    0.44E-07
   2      8     8.768    30.244    0.40E-03    0.29E-03    0.46E-06
   0      9     8.768    12.875    0.23E-04    0.52E-05    0.51E-08
   0      9     8.768    62.664    0.99E-04    0.91E-04    0.89E-07
   1      9     8.768     6.953    0.21E-04    0.43E-05    0.30E-07
   1      9     8.768    10.039    0.11E-03    0.45E-04    0.97E-07
 Optimization of the real space projectors (new method)

 maximal supplied QI-value         = 18.90
 optimisation between [QCUT,QGAM] = [  8.69, 17.57] = [ 21.16, 86.49] Ry 
 Optimized for a Real-space Cutoff    1.59 Angstroem

   l    n(q)    QCUT    max X(q) W(low)/X(q) W(high)/X(q)  e(spline) 
   1      8     8.693     3.506    0.57E-05    0.19E-04    0.87E-07
   1      8     8.693     4.421    0.39E-03    0.38E-03    0.20E-06
   2      7     8.693     3.723    0.66E-04    0.29E-04    0.98E-07
   2      7     8.693    16.670    0.43E-03    0.41E-03    0.16E-06
   0      8     8.693    19.435    0.18E-04    0.13E-04    0.13E-07
   0      8     8.693    60.574    0.64E-04    0.13E-04    0.15E-06
 PAW_PBE Au 06Sep2000                   :
 energy of atom  1       EATOM= -926.0567
 kinetic energy error for atom=    0.0455 (will be added to EATOM!!)
 PAW_PBE Cu_pv 06Sep2000                :
 energy of atom  2       EATOM=-4119.1903
 kinetic energy error for atom=    1.1264 (will be added to EATOM!!)
 
 
 POSCAR: Cu3Au L12 structure (compressed 2% + jig
  positions in direct lattice
  No initial velocities read in
 exchange correlation table for  LEXCH =        8
   RHO(1)=    0.500       N(1)  =     2000
   RHO(2)=  100.500       N(2)  =     4000
 


--------------------------------------------------------------------------------------------------------


 ion  position               nearest neighbor table
   1  0.005  0.010  0.992-   3 2.56   2 2.58   2 2.61   4 2.62   4 2.63   3 2.63   3 2.64   4 2.64
                             4 2.65   2 2.66   2 2.69   3 2.71
   2  0.512  0.495  0.007-   1 2.58   1 2.61   1 2.66   1 2.69
   3  0.490  0.989  0.505-   4 2.52   1 2.56   1 2.63   1 2.64   1 2.71
   4  0.013  0.508  0.497-   3 2.52   1 2.62   1 2.63   1 2.64   1 2.65
 
  LATTYP: Found a simple cubic cell.
 ALAT       =     3.7240000000
  
  Lattice vectors:
  
 A1 = (   3.7240000000,   0.0000000000,   0.0000000000)
 A2 = (   0.0000000000,   3.7240000000,   0.0000000000)
 A3 = (   0.0000000000,   0.0000000000,   3.7240000000)


Analysis of symmetry for initial positions (statically):
=====================================================================
 Subroutine PRICEL returns:
 Original cell was already a primitive cell.
 

 Routine SETGRP: Setting up the symmetry group for a 
 simple cubic supercell.


 Subroutine GETGRP returns: Found  1 space group operations
 (whereof  1 operations were pure point group operations)
 out of a pool of 48 trial point group operations.


The static configuration has the point symmetry C_1 .


Analysis of symmetry for dynamics (positions and initial velocities):
=====================================================================
 Subroutine PRICEL returns:
 Original cell was already a primitive cell.
 

 Routine SETGRP: Setting up the symmetry group for a 
 simple cubic supercell.


 Subroutine GETGRP returns: Found  1 space group operations
 (whereof  1 operations were pure point group operations)
 out of a pool of 48 trial point group operations.


The dynamic configuration has the point symmetry C_1 .


 Subroutine INISYM returns: Found  1 space group operations
 (whereof  1 operations are pure point group operations),
 and found     1 'primitive' translations

 
 
 KPOINTS: KPOINTS — Cu3Au (L12) quick relax     

Automatic generation of k-mesh.
Space group operators:
 irot       det(A)        alpha          n_x          n_y          n_z        tau_x        tau_y        tau_z
    1     1.000000     0.000000     1.000000     0.000000     0.000000     0.000000     0.000000     0.000000
 
 Subroutine IBZKPT returns following result:
 ===========================================
 
 Found    108 irreducible k-points:
 
 Following reciprocal coordinates:
            Coordinates               Weight
  0.083333  0.083333  0.083333      2.000000
  0.250000  0.083333  0.083333      2.000000
  0.416667  0.083333  0.083333      2.000000
 -0.416667  0.083333  0.083333      2.000000
 -0.250000  0.083333  0.083333      2.000000
 -0.083333  0.083333  0.083333      2.000000
  0.083333  0.250000  0.083333      2.000000
  0.250000  0.250000  0.083333      2.000000
  0.416667  0.250000  0.083333      2.000000
 -0.416667  0.250000  0.083333      2.000000
 -0.250000  0.250000  0.083333      2.000000
 -0.083333  0.250000  0.083333      2.000000
  0.083333  0.416667  0.083333      2.000000
  0.250000  0.416667  0.083333      2.000000
  0.416667  0.416667  0.083333      2.000000
 -0.416667  0.416667  0.083333      2.000000
 -0.250000  0.416667  0.083333      2.000000
 -0.083333  0.416667  0.083333      2.000000
  0.083333 -0.416667  0.083333      2.000000
  0.250000 -0.416667  0.083333      2.000000
  0.416667 -0.416667  0.083333      2.000000
 -0.416667 -0.416667  0.083333      2.000000
 -0.250000 -0.416667  0.083333      2.000000
 -0.083333 -0.416667  0.083333      2.000000
  0.083333 -0.250000  0.083333      2.000000
  0.250000 -0.250000  0.083333      2.000000
  0.416667 -0.250000  0.083333      2.000000
 -0.416667 -0.250000  0.083333      2.000000
 -0.250000 -0.250000  0.083333      2.000000
 -0.083333 -0.250000  0.083333      2.000000
  0.083333 -0.083333  0.083333      2.000000
  0.250000 -0.083333  0.083333      2.000000
  0.416667 -0.083333  0.083333      2.000000
 -0.416667 -0.083333  0.083333      2.000000
 -0.250000 -0.083333  0.083333      2.000000
 -0.083333 -0.083333  0.083333      2.000000
  0.083333  0.083333  0.250000      2.000000
  0.250000  0.083333  0.250000      2.000000
  0.416667  0.083333  0.250000      2.000000
 -0.416667  0.083333  0.250000      2.000000
 -0.250000  0.083333  0.250000      2.000000
 -0.083333  0.083333  0.250000      2.000000
  0.083333  0.250000  0.250000      2.000000
  0.250000  0.250000  0.250000      2.000000
  0.416667  0.250000  0.250000      2.000000
 -0.416667  0.250000  0.250000      2.000000
 -0.250000  0.250000  0.250000      2.000000
 -0.083333  0.250000  0.250000      2.000000
  0.083333  0.416667  0.250000      2.000000
  0.250000  0.416667  0.250000      2.000000
  0.416667  0.416667  0.250000      2.000000
 -0.416667  0.416667  0.250000      2.000000
 -0.250000  0.416667  0.250000      2.000000
 -0.083333  0.416667  0.250000      2.000000
  0.083333 -0.416667  0.250000      2.000000
  0.250000 -0.416667  0.250000      2.000000
  0.416667 -0.416667  0.250000      2.000000
 -0.416667 -0.416667  0.250000      2.000000
 -0.250000 -0.416667  0.250000      2.000000
 -0.083333 -0.416667  0.250000      2.000000
  0.083333 -0.250000  0.250000      2.000000
  0.250000 -0.250000  0.250000      2.000000
  0.416667 -0.250000  0.250000      2.000000
 -0.416667 -0.250000  0.250000      2.000000
 -0.250000 -0.250000  0.250000      2.000000
 -0.083333 -0.250000  0.250000      2.000000
  0.083333 -0.083333  0.250000      2.000000
  0.250000 -0.083333  0.250000      2.000000
  0.416667 -0.083333  0.250000      2.000000
 -0.416667 -0.083333  0.250000      2.000000
 -0.250000 -0.083333  0.250000      2.000000
 -0.083333 -0.083333  0.250000      2.000000
  0.083333  0.083333  0.416667      2.000000
  0.250000  0.083333  0.416667      2.000000
  0.416667  0.083333  0.416667      2.000000
 -0.416667  0.083333  0.416667      2.000000
 -0.250000  0.083333  0.416667      2.000000
 -0.083333  0.083333  0.416667      2.000000
  0.083333  0.250000  0.416667      2.000000
  0.250000  0.250000  0.416667      2.000000
  0.416667  0.250000  0.416667      2.000000
 -0.416667  0.250000  0.416667      2.000000
 -0.250000  0.250000  0.416667      2.000000
 -0.083333  0.250000  0.416667      2.000000
  0.083333  0.416667  0.416667      2.000000
  0.250000  0.416667  0.416667      2.000000
  0.416667  0.416667  0.416667      2.000000
 -0.416667  0.416667  0.416667      2.000000
 -0.250000  0.416667  0.416667      2.000000
 -0.083333  0.416667  0.416667      2.000000
  0.083333 -0.416667  0.416667      2.000000
  0.250000 -0.416667  0.416667      2.000000
  0.416667 -0.416667  0.416667      2.000000
 -0.416667 -0.416667  0.416667      2.000000
 -0.250000 -0.416667  0.416667      2.000000
 -0.083333 -0.416667  0.416667      2.000000
  0.083333 -0.250000  0.416667      2.000000
  0.250000 -0.250000  0.416667      2.000000
  0.416667 -0.250000  0.416667      2.000000
 -0.416667 -0.250000  0.416667      2.000000
 -0.250000 -0.250000  0.416667      2.000000
 -0.083333 -0.250000  0.416667      2.000000
  0.083333 -0.083333  0.416667      2.000000
  0.250000 -0.083333  0.416667      2.000000
  0.416667 -0.083333  0.416667      2.000000
 -0.416667 -0.083333  0.416667      2.000000
 -0.250000 -0.083333  0.416667      2.000000
 -0.083333 -0.083333  0.416667      2.000000
 
 Following cartesian coordinates:
            Coordinates               Weight
  0.022377  0.022377  0.022377      2.000000
  0.067132  0.022377  0.022377      2.000000
  0.111887  0.022377  0.022377      2.000000
 -0.111887  0.022377  0.022377      2.000000
 -0.067132  0.022377  0.022377      2.000000
 -0.022377  0.022377  0.022377      2.000000
  0.022377  0.067132  0.022377      2.000000
  0.067132  0.067132  0.022377      2.000000
  0.111887  0.067132  0.022377      2.000000
 -0.111887  0.067132  0.022377      2.000000
 -0.067132  0.067132  0.022377      2.000000
 -0.022377  0.067132  0.022377      2.000000
  0.022377  0.111887  0.022377      2.000000
  0.067132  0.111887  0.022377      2.000000
  0.111887  0.111887  0.022377      2.000000
 -0.111887  0.111887  0.022377      2.000000
 -0.067132  0.111887  0.022377      2.000000
 -0.022377  0.111887  0.022377      2.000000
  0.022377 -0.111887  0.022377      2.000000
  0.067132 -0.111887  0.022377      2.000000
  0.111887 -0.111887  0.022377      2.000000
 -0.111887 -0.111887  0.022377      2.000000
 -0.067132 -0.111887  0.022377      2.000000
 -0.022377 -0.111887  0.022377      2.000000
  0.022377 -0.067132  0.022377      2.000000
  0.067132 -0.067132  0.022377      2.000000
  0.111887 -0.067132  0.022377      2.000000
 -0.111887 -0.067132  0.022377      2.000000
 -0.067132 -0.067132  0.022377      2.000000
 -0.022377 -0.067132  0.022377      2.000000
  0.022377 -0.022377  0.022377      2.000000
  0.067132 -0.022377  0.022377      2.000000
  0.111887 -0.022377  0.022377      2.000000
 -0.111887 -0.022377  0.022377      2.000000
 -0.067132 -0.022377  0.022377      2.000000
 -0.022377 -0.022377  0.022377      2.000000
  0.022377  0.022377  0.067132      2.000000
  0.067132  0.022377  0.067132      2.000000
  0.111887  0.022377  0.067132      2.000000
 -0.111887  0.022377  0.067132      2.000000
 -0.067132  0.022377  0.067132      2.000000
 -0.022377  0.022377  0.067132      2.000000
  0.022377  0.067132  0.067132      2.000000
  0.067132  0.067132  0.067132      2.000000
  0.111887  0.067132  0.067132      2.000000
 -0.111887  0.067132  0.067132      2.000000
 -0.067132  0.067132  0.067132      2.000000
 -0.022377  0.067132  0.067132      2.000000
  0.022377  0.111887  0.067132      2.000000
  0.067132  0.111887  0.067132      2.000000
  0.111887  0.111887  0.067132      2.000000
 -0.111887  0.111887  0.067132      2.000000
 -0.067132  0.111887  0.067132      2.000000
 -0.022377  0.111887  0.067132      2.000000
  0.022377 -0.111887  0.067132      2.000000
  0.067132 -0.111887  0.067132      2.000000
  0.111887 -0.111887  0.067132      2.000000
 -0.111887 -0.111887  0.067132      2.000000
 -0.067132 -0.111887  0.067132      2.000000
 -0.022377 -0.111887  0.067132      2.000000
  0.022377 -0.067132  0.067132      2.000000
  0.067132 -0.067132  0.067132      2.000000
  0.111887 -0.067132  0.067132      2.000000
 -0.111887 -0.067132  0.067132      2.000000
 -0.067132 -0.067132  0.067132      2.000000
 -0.022377 -0.067132  0.067132      2.000000
  0.022377 -0.022377  0.067132      2.000000
  0.067132 -0.022377  0.067132      2.000000
  0.111887 -0.022377  0.067132      2.000000
 -0.111887 -0.022377  0.067132      2.000000
 -0.067132 -0.022377  0.067132      2.000000
 -0.022377 -0.022377  0.067132      2.000000
  0.022377  0.022377  0.111887      2.000000
  0.067132  0.022377  0.111887      2.000000
  0.111887  0.022377  0.111887      2.000000
 -0.111887  0.022377  0.111887      2.000000
 -0.067132  0.022377  0.111887      2.000000
 -0.022377  0.022377  0.111887      2.000000
  0.022377  0.067132  0.111887      2.000000
  0.067132  0.067132  0.111887      2.000000
  0.111887  0.067132  0.111887      2.000000
 -0.111887  0.067132  0.111887      2.000000
 -0.067132  0.067132  0.111887      2.000000
 -0.022377  0.067132  0.111887      2.000000
  0.022377  0.111887  0.111887      2.000000
  0.067132  0.111887  0.111887      2.000000
  0.111887  0.111887  0.111887      2.000000
 -0.111887  0.111887  0.111887      2.000000
 -0.067132  0.111887  0.111887      2.000000
 -0.022377  0.111887  0.111887      2.000000
  0.022377 -0.111887  0.111887      2.000000
  0.067132 -0.111887  0.111887      2.000000
  0.111887 -0.111887  0.111887      2.000000
 -0.111887 -0.111887  0.111887      2.000000
 -0.067132 -0.111887  0.111887      2.000000
 -0.022377 -0.111887  0.111887      2.000000
  0.022377 -0.067132  0.111887      2.000000
  0.067132 -0.067132  0.111887      2.000000
  0.111887 -0.067132  0.111887      2.000000
 -0.111887 -0.067132  0.111887      2.000000
 -0.067132 -0.067132  0.111887      2.000000
 -0.022377 -0.067132  0.111887      2.000000
  0.022377 -0.022377  0.111887      2.000000
  0.067132 -0.022377  0.111887      2.000000
  0.111887 -0.022377  0.111887      2.000000
 -0.111887 -0.022377  0.111887      2.000000
 -0.067132 -0.022377  0.111887      2.000000
 -0.022377 -0.022377  0.111887      2.000000
 


--------------------------------------------------------------------------------------------------------




 Dimension of arrays:
   k-points           NKPTS =    108   k-points in BZ     NKDIM =    108   number of bands    NBANDS=     37
   number of dos      NEDOS =    301   number of ions     NIONS =      4
   non local maximal  LDIM  =      6   non local SUM 2l+1 LMDIM =     18
   total plane-waves  NPLWV =   4096
   max r-space proj   IRMAX =   1805   max aug-charges    IRDMAX=   5049
   dimension x,y,z NGX =    16 NGY =   16 NGZ =   16
   dimension x,y,z NGXF=    32 NGYF=   32 NGZF=   32
   support grid    NGXF=    32 NGYF=   32 NGZF=   32
   ions per type =               1   3
   NGX,Y,Z   is equivalent  to a cutoff of   7.14,  7.14,  7.14 a.u.
   NGXF,Y,Z  is equivalent  to a cutoff of  14.29, 14.29, 14.29 a.u.

 SYSTEM =  unknown system                          
 POSCAR =  Cu3Au L12 structure (compressed 2% + jig

 Startparameter for this run:
   NWRITE =      2    write-flag & timer
   PREC   = normal    normal or accurate (medium, high low for compatibility)
   ISTART =      0    job   : 0-new  1-cont  2-samecut
   ICHARG =      2    charge: 1-file 2-atom 10-const
   ISPIN  =      1    spin polarized calculation?
   LNONCOLLINEAR =      F non collinear calculations
   LSORBIT =      F    spin-orbit coupling
   INIWAV =      1    electr: 0-lowe 1-rand  2-diag
   LASPH  =      F    aspherical Exc in radial PAW
   METAGGA=      F    non-selfconsistent MetaGGA calc.

 Electronic Relaxation 1
   ENCUT  =  300.0 eV  22.05 Ry    4.70 a.u.   5.26  5.26  5.26*2*pi/ulx,y,z
   ENINI  =  300.0     initial cutoff
   ENAUG  =  758.2 eV  augmentation charge cutoff
   NELM   =     80;   NELMIN=  2; NELMDL= -5     # of ELM steps 
   EDIFF  = 0.1E-04   stopping-criterion for ELM
   LREAL  =      T    real-space projection
   NLSPLINE    = F    spline interpolate recip. space projectors
   LCOMPAT=      F    compatible to vasp.4.4
   GGA_COMPAT  = T    GGA compatible to vasp.4.4-vasp.4.6
   LMAXPAW     = -100 max onsite density
   LMAXMIX     =    2 max onsite mixed and CHGCAR
   VOSKOWN=      0    Vosko Wilk Nusair interpolation
   ROPT   =   -0.00050  -0.00050
 Ionic relaxation
   EDIFFG = -.3E-01   stopping-criterion for IOM
   NSW    =     40    number of steps for IOM
   NBLOCK =      1;   KBLOCK =     40    inner block; outer block 
   IBRION =      2    ionic relax: 0-MD 1-quasi-New 2-CG
   NFREE  =      1    steps in history (QN), initial steepest desc. (CG)
   ISIF   =      3    stress and relaxation
   IWAVPR =     11    prediction:  0-non 1-charg 2-wave 3-comb
   ISYM   =      2    0-nonsym 1-usesym 2-fastsym
   LCORR  =      T    Harris-Foulkes like correction to forces

   POTIM  = 0.5000    time-step for ionic-motion
   TEIN   =    0.0    initial temperature
   TEBEG  =    0.0;   TEEND  =   0.0 temperature during run
   SMASS  =  -3.00    Nose mass-parameter (am)
   estimated Nose-frequenzy (Omega)   =  0.10E-29 period in steps =****** mass=  -0.317E-27a.u.
   SCALEE = 1.0000    scale energy and forces
   NPACO  =    256;   APACO  = 16.0  distance and # of slots for P.C.
   PSTRESS=    0.0 pullay stress

  Mass of Ions in am
   POMASS = 196.97 63.55
  Ionic Valenz
   ZVAL   =  11.00 17.00
  Atomic Wigner-Seitz radii
   RWIGS  =  -1.00 -1.00
  virtual crystal weights 
   VCA    =   1.00  1.00
   NELECT =      62.0000    total number of electrons
   NUPDOWN=      -1.0000    fix difference up-down

 DOS related values:
   EMIN   =  10.00;   EMAX   =-10.00  energy-range for DOS
   EFERMI =   0.00
   ISMEAR =     1;   SIGMA  =   0.20  broadening in eV -4-tet -1-fermi 0-gaus

 Electronic relaxation 2 (details)
   IALGO  =     58    algorithm
   LDIAG  =      T    sub-space diagonalisation (order eigenvalues)
   LSUBROT=      F    optimize rotation matrix (better conditioning)
   TURBO    =      0    0=normal 1=particle mesh
   IRESTART =      0    0=no restart 2=restart with 2 vectors
   NREBOOT  =      0    no. of reboots
   NMIN     =      0    reboot dimension
   EREF     =   0.00    reference energy to select bands
   IMIX   =      4    mixing-type and parameters
     AMIX     =   0.02;   BMIX     =  0.00
     AMIX_MAG =   0.08;   BMIX_MAG =  0.00
     AMIN     =   0.02
     WC   =   100.;   INIMIX=   1;  MIXPRE=   1;  MAXMIX= -45

 Intra band minimization:
   WEIMIN = 0.0010     energy-eigenvalue tresh-hold
   EBREAK =  0.68E-07  absolut break condition
   DEPER  =   0.30     relativ break condition  

   TIME   =   0.40     timestep for ELM

  volume/ion in A,a.u.               =      12.91        87.13
  Fermi-wavevector in a.u.,A,eV,Ry     =   1.739919  3.287970 41.189168  3.027318
  Thomas-Fermi vector in A             =   2.812668
 
 Write flags
   LWAVE        =      F    write WAVECAR
   LDOWNSAMPLE  =      F    k-point downsampling of WAVECAR
   LCHARG       =      T    write CHGCAR
   LVTOT        =      F    write LOCPOT, total local potential
   LVHAR        =      F    write LOCPOT, Hartree potential only
   LELF         =      F    write electronic localiz. function (ELF)
   LORBIT       =      0    0 simple, 1 ext, 2 COOP (PROOUT), +10 PAW based schemes


 Dipole corrections
   LMONO  =      F    monopole corrections only (constant potential shift)
   LDIPOL =      F    correct potential (dipole corrections)
   IDIPOL =      0    1-x, 2-y, 3-z, 4-all directions 
   EPSILON=  1.0000000 bulk dielectric constant

 Exchange correlation treatment:
   GGA     =    --    GGA type
   LEXCH   =     8    internal setting for exchange type
   VOSKOWN=      0    Vosko Wilk Nusair interpolation
   LHFCALC =     F    Hartree Fock is set to
   LHFONE  =     F    Hartree Fock one center treatment
   AEXX    =    0.0000 exact exchange contribution

 Linear response parameters
   LEPSILON=     F    determine dielectric tensor
   LRPA    =     F    only Hartree local field effects (RPA)
   LNABLA  =     F    use nabla operator in PAW spheres
   LVEL    =     F    velocity operator in full k-point grid
   LINTERFAST=   F  fast interpolation
   KINTER  =     0    interpolate to denser k-point grid
   CSHIFT  =0.1000    complex shift for real part using Kramers Kronig
   OMEGAMAX=  -1.0    maximum frequency
   DEG_THRESHOLD= 0.2000000E-02 threshold for treating states as degnerate
   RTIME   =   -0.100 relaxation time in fs
  (WPLASMAI=    0.000 imaginary part of plasma frequency in eV, 0.658/RTIME)
   DFIELD  = 0.0000000 0.0000000 0.0000000 field for delta impulse in time
 
 Orbital magnetization related:
   ORBITALMAG=     F  switch on orbital magnetization
   LCHIMAG   =     F  perturbation theory with respect to B field
   DQ        =  0.001000  dq finite difference perturbation B field
   LLRAUG    =     F  two centre corrections for induced B field



--------------------------------------------------------------------------------------------------------


 conjugate gradient relaxation of ions
 charge density and potential will be updated during run
 non-spin polarized calculation
 Conjugate gradient for all bands (Freysoldt, et al. PRB 79, 241103 (2009))
 preconditioned conjugated gradient                                        
 perform sub-space diagonalisation
    before iterative eigenvector-optimisation
 modified Broyden-mixing scheme, WC =      100.0
 initial mixing is a Kerker type mixing with AMIX =  0.0200 and BMIX =      0.0001
 Hartree-type preconditioning will be used
 using additional bands            6
 real space projection scheme for non local part
 use partial core corrections
 no Harris-corrections to forces 
 use gradient corrections 
 use of overlap-Matrix (Vanderbilt PP)
 Methfessel and Paxton  Order N= 1 SIGMA  =   0.20


--------------------------------------------------------------------------------------------------------


  energy-cutoff  :      300.00
  volume of cell :       51.65
      direct lattice vectors                 reciprocal lattice vectors
     3.724000000  0.000000000  0.000000000     0.268528464  0.000000000  0.000000000
     0.000000000  3.724000000  0.000000000     0.000000000  0.268528464  0.000000000
     0.000000000  0.000000000  3.724000000     0.000000000  0.000000000  0.268528464

  length of vectors
     3.724000000  3.724000000  3.724000000     0.268528464  0.268528464  0.268528464


 
 k-points in units of 2pi/SCALE and weight: KPOINTS — Cu3Au (L12) quick relax     
   0.02237737  0.02237737  0.02237737       0.009
   0.06713212  0.02237737  0.02237737       0.009
   0.11188686  0.02237737  0.02237737       0.009
  -0.11188686  0.02237737  0.02237737       0.009
  -0.06713212  0.02237737  0.02237737       0.009
  -0.02237737  0.02237737  0.02237737       0.009
   0.02237737  0.06713212  0.02237737       0.009
   0.06713212  0.06713212  0.02237737       0.009
   0.11188686  0.06713212  0.02237737       0.009
  -0.11188686  0.06713212  0.02237737       0.009
  -0.06713212  0.06713212  0.02237737       0.009
  -0.02237737  0.06713212  0.02237737       0.009
   0.02237737  0.11188686  0.02237737       0.009
   0.06713212  0.11188686  0.02237737       0.009
   0.11188686  0.11188686  0.02237737       0.009
  -0.11188686  0.11188686  0.02237737       0.009
  -0.06713212  0.11188686  0.02237737       0.009
  -0.02237737  0.11188686  0.02237737       0.009
   0.02237737 -0.11188686  0.02237737       0.009
   0.06713212 -0.11188686  0.02237737       0.009
   0.11188686 -0.11188686  0.02237737       0.009
  -0.11188686 -0.11188686  0.02237737       0.009
  -0.06713212 -0.11188686  0.02237737       0.009
  -0.02237737 -0.11188686  0.02237737       0.009
   0.02237737 -0.06713212  0.02237737       0.009
   0.06713212 -0.06713212  0.02237737       0.009
   0.11188686 -0.06713212  0.02237737       0.009
  -0.11188686 -0.06713212  0.02237737       0.009
  -0.06713212 -0.06713212  0.02237737       0.009
  -0.02237737 -0.06713212  0.02237737       0.009
   0.02237737 -0.02237737  0.02237737       0.009
   0.06713212 -0.02237737  0.02237737       0.009
   0.11188686 -0.02237737  0.02237737       0.009
  -0.11188686 -0.02237737  0.02237737       0.009
  -0.06713212 -0.02237737  0.02237737       0.009
  -0.02237737 -0.02237737  0.02237737       0.009
   0.02237737  0.02237737  0.06713212       0.009
   0.06713212  0.02237737  0.06713212       0.009
   0.11188686  0.02237737  0.06713212       0.009
  -0.11188686  0.02237737  0.06713212       0.009
  -0.06713212  0.02237737  0.06713212       0.009
  -0.02237737  0.02237737  0.06713212       0.009
   0.02237737  0.06713212  0.06713212       0.009
   0.06713212  0.06713212  0.06713212       0.009
   0.11188686  0.06713212  0.06713212       0.009
  -0.11188686  0.06713212  0.06713212       0.009
  -0.06713212  0.06713212  0.06713212       0.009
  -0.02237737  0.06713212  0.06713212       0.009
   0.02237737  0.11188686  0.06713212       0.009
   0.06713212  0.11188686  0.06713212       0.009
   0.11188686  0.11188686  0.06713212       0.009
  -0.11188686  0.11188686  0.06713212       0.009
  -0.06713212  0.11188686  0.06713212       0.009
  -0.02237737  0.11188686  0.06713212       0.009
   0.02237737 -0.11188686  0.06713212       0.009
   0.06713212 -0.11188686  0.06713212       0.009
   0.11188686 -0.11188686  0.06713212       0.009
  -0.11188686 -0.11188686  0.06713212       0.009
  -0.06713212 -0.11188686  0.06713212       0.009
  -0.02237737 -0.11188686  0.06713212       0.009
   0.02237737 -0.06713212  0.06713212       0.009
   0.06713212 -0.06713212  0.06713212       0.009
   0.11188686 -0.06713212  0.06713212       0.009
  -0.11188686 -0.06713212  0.06713212       0.009
  -0.06713212 -0.06713212  0.06713212       0.009
  -0.02237737 -0.06713212  0.06713212       0.009
   0.02237737 -0.02237737  0.06713212       0.009
   0.06713212 -0.02237737  0.06713212       0.009
   0.11188686 -0.02237737  0.06713212       0.009
  -0.11188686 -0.02237737  0.06713212       0.009
  -0.06713212 -0.02237737  0.06713212       0.009
  -0.02237737 -0.02237737  0.06713212       0.009
   0.02237737  0.02237737  0.11188686       0.009
   0.06713212  0.02237737  0.11188686       0.009
   0.11188686  0.02237737  0.11188686       0.009
  -0.11188686  0.02237737  0.11188686       0.009
  -0.06713212  0.02237737  0.11188686       0.009
  -0.02237737  0.02237737  0.11188686       0.009
   0.02237737  0.06713212  0.11188686       0.009
   0.06713212  0.06713212  0.11188686       0.009
   0.11188686  0.06713212  0.11188686       0.009
  -0.11188686  0.06713212  0.11188686       0.009
  -0.06713212  0.06713212  0.11188686       0.009
  -0.02237737  0.06713212  0.11188686       0.009
   0.02237737  0.11188686  0.11188686       0.009
   0.06713212  0.11188686  0.11188686       0.009
   0.11188686  0.11188686  0.11188686       0.009
  -0.11188686  0.11188686  0.11188686       0.009
  -0.06713212  0.11188686  0.11188686       0.009
  -0.02237737  0.11188686  0.11188686       0.009
   0.02237737 -0.11188686  0.11188686       0.009
   0.06713212 -0.11188686  0.11188686       0.009
   0.11188686 -0.11188686  0.11188686       0.009
  -0.11188686 -0.11188686  0.11188686       0.009
  -0.06713212 -0.11188686  0.11188686       0.009
  -0.02237737 -0.11188686  0.11188686       0.009
   0.02237737 -0.06713212  0.11188686       0.009
   0.06713212 -0.06713212  0.11188686       0.009
   0.11188686 -0.06713212  0.11188686       0.009
  -0.11188686 -0.06713212  0.11188686       0.009
  -0.06713212 -0.06713212  0.11188686       0.009
  -0.02237737 -0.06713212  0.11188686       0.009
   0.02237737 -0.02237737  0.11188686       0.009
   0.06713212 -0.02237737  0.11188686       0.009
   0.11188686 -0.02237737  0.11188686       0.009
  -0.11188686 -0.02237737  0.11188686       0.009
  -0.06713212 -0.02237737  0.11188686       0.009
  -0.02237737 -0.02237737  0.11188686       0.009
 
 k-points in reciprocal lattice and weights: KPOINTS — Cu3Au (L12) quick relax     
   0.08333333  0.08333333  0.08333333       0.009
   0.25000000  0.08333333  0.08333333       0.009
   0.41666667  0.08333333  0.08333333       0.009
  -0.41666667  0.08333333  0.08333333       0.009
  -0.25000000  0.08333333  0.08333333       0.009
  -0.08333333  0.08333333  0.08333333       0.009
   0.08333333  0.25000000  0.08333333       0.009
   0.25000000  0.25000000  0.08333333       0.009
   0.41666667  0.25000000  0.08333333       0.009
  -0.41666667  0.25000000  0.08333333       0.009
  -0.25000000  0.25000000  0.08333333       0.009
  -0.08333333  0.25000000  0.08333333       0.009
   0.08333333  0.41666667  0.08333333       0.009
   0.25000000  0.41666667  0.08333333       0.009
   0.41666667  0.41666667  0.08333333       0.009
  -0.41666667  0.41666667  0.08333333       0.009
  -0.25000000  0.41666667  0.08333333       0.009
  -0.08333333  0.41666667  0.08333333       0.009
   0.08333333 -0.41666667  0.08333333       0.009
   0.25000000 -0.41666667  0.08333333       0.009
   0.41666667 -0.41666667  0.08333333       0.009
  -0.41666667 -0.41666667  0.08333333       0.009
  -0.25000000 -0.41666667  0.08333333       0.009
  -0.08333333 -0.41666667  0.08333333       0.009
   0.08333333 -0.25000000  0.08333333       0.009
   0.25000000 -0.25000000  0.08333333       0.009
   0.41666667 -0.25000000  0.08333333       0.009
  -0.41666667 -0.25000000  0.08333333       0.009
  -0.25000000 -0.25000000  0.08333333       0.009
  -0.08333333 -0.25000000  0.08333333       0.009
   0.08333333 -0.08333333  0.08333333       0.009
   0.25000000 -0.08333333  0.08333333       0.009
   0.41666667 -0.08333333  0.08333333       0.009
  -0.41666667 -0.08333333  0.08333333       0.009
  -0.25000000 -0.08333333  0.08333333       0.009
  -0.08333333 -0.08333333  0.08333333       0.009
   0.08333333  0.08333333  0.25000000       0.009
   0.25000000  0.08333333  0.25000000       0.009
   0.41666667  0.08333333  0.25000000       0.009
  -0.41666667  0.08333333  0.25000000       0.009
  -0.25000000  0.08333333  0.25000000       0.009
  -0.08333333  0.08333333  0.25000000       0.009
   0.08333333  0.25000000  0.25000000       0.009
   0.25000000  0.25000000  0.25000000       0.009
   0.41666667  0.25000000  0.25000000       0.009
  -0.41666667  0.25000000  0.25000000       0.009
  -0.25000000  0.25000000  0.25000000       0.009
  -0.08333333  0.25000000  0.25000000       0.009
   0.08333333  0.41666667  0.25000000       0.009
   0.25000000  0.41666667  0.25000000       0.009
   0.41666667  0.41666667  0.25000000       0.009
  -0.41666667  0.41666667  0.25000000       0.009
  -0.25000000  0.41666667  0.25000000       0.009
  -0.08333333  0.41666667  0.25000000       0.009
   0.08333333 -0.41666667  0.25000000       0.009
   0.25000000 -0.41666667  0.25000000       0.009
   0.41666667 -0.41666667  0.25000000       0.009
  -0.41666667 -0.41666667  0.25000000       0.009
  -0.25000000 -0.41666667  0.25000000       0.009
  -0.08333333 -0.41666667  0.25000000       0.009
   0.08333333 -0.25000000  0.25000000       0.009
   0.25000000 -0.25000000  0.25000000       0.009
   0.41666667 -0.25000000  0.25000000       0.009
  -0.41666667 -0.25000000  0.25000000       0.009
  -0.25000000 -0.25000000  0.25000000       0.009
  -0.08333333 -0.25000000  0.25000000       0.009
   0.08333333 -0.08333333  0.25000000       0.009
   0.25000000 -0.08333333  0.25000000       0.009
   0.41666667 -0.08333333  0.25000000       0.009
  -0.41666667 -0.08333333  0.25000000       0.009
  -0.25000000 -0.08333333  0.25000000       0.009
  -0.08333333 -0.08333333  0.25000000       0.009
   0.08333333  0.08333333  0.41666667       0.009
   0.25000000  0.08333333  0.41666667       0.009
   0.41666667  0.08333333  0.41666667       0.009
  -0.41666667  0.08333333  0.41666667       0.009
  -0.25000000  0.08333333  0.41666667       0.009
  -0.08333333  0.08333333  0.41666667       0.009
   0.08333333  0.25000000  0.41666667       0.009
   0.25000000  0.25000000  0.41666667       0.009
   0.41666667  0.25000000  0.41666667       0.009
  -0.41666667  0.25000000  0.41666667       0.009
  -0.25000000  0.25000000  0.41666667       0.009
  -0.08333333  0.25000000  0.41666667       0.009
   0.08333333  0.41666667  0.41666667       0.009
   0.25000000  0.41666667  0.41666667       0.009
   0.41666667  0.41666667  0.41666667       0.009
  -0.41666667  0.41666667  0.41666667       0.009
  -0.25000000  0.41666667  0.41666667       0.009
  -0.08333333  0.41666667  0.41666667       0.009
   0.08333333 -0.41666667  0.41666667       0.009
   0.25000000 -0.41666667  0.41666667       0.009
   0.41666667 -0.41666667  0.41666667       0.009
  -0.41666667 -0.41666667  0.41666667       0.009
  -0.25000000 -0.41666667  0.41666667       0.009
  -0.08333333 -0.41666667  0.41666667       0.009
   0.08333333 -0.25000000  0.41666667       0.009
   0.25000000 -0.25000000  0.41666667       0.009
   0.41666667 -0.25000000  0.41666667       0.009
  -0.41666667 -0.25000000  0.41666667       0.009
  -0.25000000 -0.25000000  0.41666667       0.009
  -0.08333333 -0.25000000  0.41666667       0.009
   0.08333333 -0.08333333  0.41666667       0.009
   0.25000000 -0.08333333  0.41666667       0.009
   0.41666667 -0.08333333  0.41666667       0.009
  -0.41666667 -0.08333333  0.41666667       0.009
  -0.25000000 -0.08333333  0.41666667       0.009
  -0.08333333 -0.08333333  0.41666667       0.009
 
 position of ions in fractional coordinates (direct lattice) 
   0.00500000  0.01000000  0.99200000
   0.51200000  0.49500000  0.00700000
   0.49000000  0.98900000  0.50500000
   0.01300000  0.50800000  0.49700000
 
 position of ions in cartesian coordinates  (Angst):
   0.01862000  0.03724000  3.69420800
   1.90668800  1.84338000  0.02606800
   1.82476000  3.68303600  1.88062000
   0.04841200  1.89179200  1.85082800
 


--------------------------------------------------------------------------------------------------------


 k-point  1 :   0.0833 0.0833 0.0833  plane waves:     615
 k-point  2 :   0.2500 0.0833 0.0833  plane waves:     614
 k-point  3 :   0.4167 0.0833 0.0833  plane waves:     609
 k-point  4 :  -0.4167 0.0833 0.0833  plane waves:     609
 k-point  5 :  -0.2500 0.0833 0.0833  plane waves:     614
 k-point  6 :  -0.0833 0.0833 0.0833  plane waves:     615
 k-point  7 :   0.0833 0.2500 0.0833  plane waves:     614
 k-point  8 :   0.2500 0.2500 0.0833  plane waves:     614
 k-point  9 :   0.4167 0.2500 0.0833  plane waves:     605
 k-point 10 :  -0.4167 0.2500 0.0833  plane waves:     605
 k-point 11 :  -0.2500 0.2500 0.0833  plane waves:     614
 k-point 12 :  -0.0833 0.2500 0.0833  plane waves:     614
 k-point 13 :   0.0833 0.4167 0.0833  plane waves:     609
 k-point 14 :   0.2500 0.4167 0.0833  plane waves:     605
 k-point 15 :   0.4167 0.4167 0.0833  plane waves:     602
 k-point 16 :  -0.4167 0.4167 0.0833  plane waves:     602
 k-point 17 :  -0.2500 0.4167 0.0833  plane waves:     605
 k-point 18 :  -0.0833 0.4167 0.0833  plane waves:     609
 k-point 19 :   0.0833-0.4167 0.0833  plane waves:     609
 k-point 20 :   0.2500-0.4167 0.0833  plane waves:     605
 k-point 21 :   0.4167-0.4167 0.0833  plane waves:     602
 k-point 22 :  -0.4167-0.4167 0.0833  plane waves:     602
 k-point 23 :  -0.2500-0.4167 0.0833  plane waves:     605
 k-point 24 :  -0.0833-0.4167 0.0833  plane waves:     609
 k-point 25 :   0.0833-0.2500 0.0833  plane waves:     614
 k-point 26 :   0.2500-0.2500 0.0833  plane waves:     614
 k-point 27 :   0.4167-0.2500 0.0833  plane waves:     605
 k-point 28 :  -0.4167-0.2500 0.0833  plane waves:     605
 k-point 29 :  -0.2500-0.2500 0.0833  plane waves:     614
 k-point 30 :  -0.0833-0.2500 0.0833  plane waves:     614
 k-point 31 :   0.0833-0.0833 0.0833  plane waves:     615
 k-point 32 :   0.2500-0.0833 0.0833  plane waves:     614
 k-point 33 :   0.4167-0.0833 0.0833  plane waves:     609
 k-point 34 :  -0.4167-0.0833 0.0833  plane waves:     609
 k-point 35 :  -0.2500-0.0833 0.0833  plane waves:     614
 k-point 36 :  -0.0833-0.0833 0.0833  plane waves:     615
 k-point 37 :   0.0833 0.0833 0.2500  plane waves:     614
 k-point 38 :   0.2500 0.0833 0.2500  plane waves:     614
 k-point 39 :   0.4167 0.0833 0.2500  plane waves:     605
 k-point 40 :  -0.4167 0.0833 0.2500  plane waves:     605
 k-point 41 :  -0.2500 0.0833 0.2500  plane waves:     614
 k-point 42 :  -0.0833 0.0833 0.2500  plane waves:     614
 k-point 43 :   0.0833 0.2500 0.2500  plane waves:     614
 k-point 44 :   0.2500 0.2500 0.2500  plane waves:     597
 k-point 45 :   0.4167 0.2500 0.2500  plane waves:     610
 k-point 46 :  -0.4167 0.2500 0.2500  plane waves:     610
 k-point 47 :  -0.2500 0.2500 0.2500  plane waves:     597
 k-point 48 :  -0.0833 0.2500 0.2500  plane waves:     614
 k-point 49 :   0.0833 0.4167 0.2500  plane waves:     605
 k-point 50 :   0.2500 0.4167 0.2500  plane waves:     610
 k-point 51 :   0.4167 0.4167 0.2500  plane waves:     613
 k-point 52 :  -0.4167 0.4167 0.2500  plane waves:     613
 k-point 53 :  -0.2500 0.4167 0.2500  plane waves:     610
 k-point 54 :  -0.0833 0.4167 0.2500  plane waves:     605
 k-point 55 :   0.0833-0.4167 0.2500  plane waves:     605
 k-point 56 :   0.2500-0.4167 0.2500  plane waves:     610
 k-point 57 :   0.4167-0.4167 0.2500  plane waves:     613
 k-point 58 :  -0.4167-0.4167 0.2500  plane waves:     613
 k-point 59 :  -0.2500-0.4167 0.2500  plane waves:     610
 k-point 60 :  -0.0833-0.4167 0.2500  plane waves:     605
 k-point 61 :   0.0833-0.2500 0.2500  plane waves:     614
 k-point 62 :   0.2500-0.2500 0.2500  plane waves:     597
 k-point 63 :   0.4167-0.2500 0.2500  plane waves:     610
 k-point 64 :  -0.4167-0.2500 0.2500  plane waves:     610
 k-point 65 :  -0.2500-0.2500 0.2500  plane waves:     597
 k-point 66 :  -0.0833-0.2500 0.2500  plane waves:     614
 k-point 67 :   0.0833-0.0833 0.2500  plane waves:     614
 k-point 68 :   0.2500-0.0833 0.2500  plane waves:     614
 k-point 69 :   0.4167-0.0833 0.2500  plane waves:     605
 k-point 70 :  -0.4167-0.0833 0.2500  plane waves:     605
 k-point 71 :  -0.2500-0.0833 0.2500  plane waves:     614
 k-point 72 :  -0.0833-0.0833 0.2500  plane waves:     614
 k-point 73 :   0.0833 0.0833 0.4167  plane waves:     609
 k-point 74 :   0.2500 0.0833 0.4167  plane waves:     605
 k-point 75 :   0.4167 0.0833 0.4167  plane waves:     602
 k-point 76 :  -0.4167 0.0833 0.4167  plane waves:     602
 k-point 77 :  -0.2500 0.0833 0.4167  plane waves:     605
 k-point 78 :  -0.0833 0.0833 0.4167  plane waves:     609
 k-point 79 :   0.0833 0.2500 0.4167  plane waves:     605
 k-point 80 :   0.2500 0.2500 0.4167  plane waves:     610
 k-point 81 :   0.4167 0.2500 0.4167  plane waves:     613
 k-point 82 :  -0.4167 0.2500 0.4167  plane waves:     613
 k-point 83 :  -0.2500 0.2500 0.4167  plane waves:     610
 k-point 84 :  -0.0833 0.2500 0.4167  plane waves:     605
 k-point 85 :   0.0833 0.4167 0.4167  plane waves:     602
 k-point 86 :   0.2500 0.4167 0.4167  plane waves:     613
 k-point 87 :   0.4167 0.4167 0.4167  plane waves:     612
 k-point 88 :  -0.4167 0.4167 0.4167  plane waves:     612
 k-point 89 :  -0.2500 0.4167 0.4167  plane waves:     613
 k-point 90 :  -0.0833 0.4167 0.4167  plane waves:     602
 k-point 91 :   0.0833-0.4167 0.4167  plane waves:     602
 k-point 92 :   0.2500-0.4167 0.4167  plane waves:     613
 k-point 93 :   0.4167-0.4167 0.4167  plane waves:     612
 k-point 94 :  -0.4167-0.4167 0.4167  plane waves:     612
 k-point 95 :  -0.2500-0.4167 0.4167  plane waves:     613
 k-point 96 :  -0.0833-0.4167 0.4167  plane waves:     602
 k-point 97 :   0.0833-0.2500 0.4167  plane waves:     605
 k-point 98 :   0.2500-0.2500 0.4167  plane waves:     610
 k-point 99 :   0.4167-0.2500 0.4167  plane waves:     613
 k-point ** :  -0.4167-0.2500 0.4167  plane waves:     613
 k-point ** :  -0.2500-0.2500 0.4167  plane waves:     610
 k-point ** :  -0.0833-0.2500 0.4167  plane waves:     605
 k-point ** :   0.0833-0.0833 0.4167  plane waves:     609
 k-point ** :   0.2500-0.0833 0.4167  plane waves:     605
 k-point ** :   0.4167-0.0833 0.4167  plane waves:     602
 k-point ** :  -0.4167-0.0833 0.4167  plane waves:     602
 k-point ** :  -0.2500-0.0833 0.4167  plane waves:     605
 k-point ** :  -0.0833-0.0833 0.4167  plane waves:     609

 maximum and minimum number of plane-waves per node :       615      597

 maximum number of plane-waves:       615
 maximum index in each direction: 
   IXMAX=    5   IYMAX=    5   IZMAX=    5
   IXMIN=   -5   IYMIN=   -5   IZMIN=   -5


 serial   3D FFT for wavefunctions
 parallel 3D FFT for charge:
    minimum data exchange during FFTs selected (reduces bandwidth)


 total amount of memory used by VASP MPI-rank0   166113. kBytes
=======================================================================

   base      :      30000. kBytes
   nonlr-proj:       1011. kBytes
   fftplans  :       1184. kBytes
   grid      :       2084. kBytes
   one-center:         62. kBytes
   wavefun   :     131772. kBytes
 
     INWAV:  cpu time    0.0000: real time    0.0000
 Broyden mixing: mesh for mixing (old mesh)
   NGX = 11   NGY = 11   NGZ = 11
  (NGX  = 32   NGY  = 32   NGZ  = 32)
  gives a total of   1331 points

 initial charge density was supplied:
 charge density of overlapping atoms calculated
 number of electron      62.0000000 magnetization 
 keeping initial charge density in first step


--------------------------------------------------------------------------------------------------------


 Maximum index for non-local projection operator         1711
 Maximum index for augmentation-charges         4714 (set IRDMAX)


--------------------------------------------------------------------------------------------------------


 First call to EWALD:  gamma=   0.476
 Maximum number of real-space cells 3x 3x 3
 Maximum number of reciprocal cells 3x 3x 3

    FEWALD:  cpu time    0.0011: real time    0.0011


--------------------------------------- Iteration      1(   1)  ---------------------------------------


    POTLOK:  cpu time    0.0093: real time    0.0093
    SETDIJ:  cpu time    0.0048: real time    0.0048
    TRIAL :  cpu time    1.9610: real time    3.9604
    CORREC:  cpu time    0.0067: real time    0.0067
    --------------------------------------------
      LOOP:  cpu time    1.9915: real time    3.9911

 eigenvalue-minimisations  :  9664
 total energy-change (2. order) : 0.5994422E+03  (-0.3112088E+04)
 number of electron      62.0000000 magnetization 
 augmentation part       62.0000000 magnetization 

 Free energy of the ion-electron system (eV)
  ---------------------------------------------------
  alpha Z        PSCENC =       587.67023998
  Ewald energy   TEWEN  =     -8632.16693211
  -Hartree energ DENC   =     -4288.20506751
  -exchange      EXHF   =         0.00000000
  -V(xc)+E(xc)   XCENC  =       340.39743434
  PAW double counting   =     10439.60561056   -10863.16027776
  entropy T*S    EENTRO =        -0.00072400
  eigenvalues    EBANDS =      -264.90087235
  atomic energy  EATOM  =     13280.20280305
  ---------------------------------------------------
  free energy    TOTEN  =       599.44221418 eV

  energy without entropy =      599.44293818  energy(sigma->0) =      599.44245551


--------------------------------------------------------------------------------------------------------




--------------------------------------- Iteration      1(   2)  ---------------------------------------


    TRIAL :  cpu time    1.7177: real time    3.4182
    CORREC:  cpu time    0.0070: real time    0.0070
    --------------------------------------------
      LOOP:  cpu time    1.7251: real time    3.4262

 eigenvalue-minimisations  :  8331
 total energy-change (2. order) :-0.5856442E+03  (-0.5643268E+03)
 number of electron      62.0000000 magnetization 
 augmentation part       62.0000000 magnetization 

 Free energy of the ion-electron system (eV)
  ---------------------------------------------------
  alpha Z        PSCENC =       587.67023998
  Ewald energy   TEWEN  =     -8632.16693211
  -Hartree energ DENC   =     -4288.20506751
  -exchange      EXHF   =         0.00000000
  -V(xc)+E(xc)   XCENC  =       340.39743434
  PAW double counting   =     10439.60561056   -10863.16027776
  entropy T*S    EENTRO =         0.00119709
  eigenvalues    EBANDS =      -850.54697096
  atomic energy  EATOM  =     13280.20280305
  ---------------------------------------------------
  free energy    TOTEN  =        13.79803666 eV

  energy without entropy =       13.79683957  energy(sigma->0) =       13.79763763


--------------------------------------------------------------------------------------------------------




--------------------------------------- Iteration      1(   3)  ---------------------------------------


    TRIAL :  cpu time    1.8320: real time    3.6806
    CORREC:  cpu time    0.0076: real time    0.0077
    --------------------------------------------
      LOOP:  cpu time    1.8399: real time    3.6889

 eigenvalue-minimisations  :  9008
 total energy-change (2. order) :-0.3048890E+02  (-0.2877060E+02)
 number of electron      62.0000000 magnetization 
 augmentation part       62.0000000 magnetization 

 Free energy of the ion-electron system (eV)
  ---------------------------------------------------
  alpha Z        PSCENC =       587.67023998
  Ewald energy   TEWEN  =     -8632.16693211
  -Hartree energ DENC   =     -4288.20506751
  -exchange      EXHF   =         0.00000000
  -V(xc)+E(xc)   XCENC  =       340.39743434
  PAW double counting   =     10439.60561056   -10863.16027776
  entropy T*S    EENTRO =        -0.00269602
  eigenvalues    EBANDS =      -881.03197418
  atomic energy  EATOM  =     13280.20280305
  ---------------------------------------------------
  free energy    TOTEN  =       -16.69085966 eV

  energy without entropy =      -16.68816364  energy(sigma->0) =      -16.68996099


--------------------------------------------------------------------------------------------------------




--------------------------------------- Iteration      1(   4)  ---------------------------------------


    TRIAL :  cpu time    1.7366: real time    3.4694
    CORREC:  cpu time    0.0077: real time    0.0077
    --------------------------------------------
      LOOP:  cpu time    1.7447: real time    3.4954

 eigenvalue-minimisations  :  8467
 total energy-change (2. order) :-0.6767610E+00  (-0.6374932E+00)
 number of electron      62.0000000 magnetization 
 augmentation part       62.0000000 magnetization 

 Free energy of the ion-electron system (eV)
  ---------------------------------------------------
  alpha Z        PSCENC =       587.67023998
  Ewald energy   TEWEN  =     -8632.16693211
  -Hartree energ DENC   =     -4288.20506751
  -exchange      EXHF   =         0.00000000
  -V(xc)+E(xc)   XCENC  =       340.39743434
  PAW double counting   =     10439.60561056   -10863.16027776
  entropy T*S    EENTRO =        -0.00129232
  eigenvalues    EBANDS =      -881.71013889
  atomic energy  EATOM  =     13280.20280305
  ---------------------------------------------------
  free energy    TOTEN  =       -17.36762067 eV

  energy without entropy =      -17.36632835  energy(sigma->0) =      -17.36718990


--------------------------------------------------------------------------------------------------------




--------------------------------------- Iteration      1(   5)  ---------------------------------------


    TRIAL :  cpu time    1.7695: real time    3.5226
    CORREC:  cpu time    0.0071: real time    0.0562
    CHARGE:  cpu time    0.0752: real time    0.1259
    --------------------------------------------
      LOOP:  cpu time    1.8521: real time    3.7052

 eigenvalue-minimisations  :  8578
 total energy-change (2. order) :-0.1393834E-01  (-0.1393269E-01)
 number of electron      61.9999666 magnetization 
 augmentation part       34.7890360 magnetization 

 Free energy of the ion-electron system (eV)
  ---------------------------------------------------
  alpha Z        PSCENC =       587.67023998
  Ewald energy   TEWEN  =     -8632.16693211
  -Hartree energ DENC   =     -4288.20506751
  -exchange      EXHF   =         0.00000000
  -V(xc)+E(xc)   XCENC  =       340.39743434
  PAW double counting   =     10439.60561056   -10863.16027776
  entropy T*S    EENTRO =        -0.00129668
  eigenvalues    EBANDS =      -881.72407286
  atomic energy  EATOM  =     13280.20280305
  ---------------------------------------------------
  free energy    TOTEN  =       -17.38155901 eV

  energy without entropy =      -17.38026232  energy(sigma->0) =      -17.38112678


--------------------------------------------------------------------------------------------------------




--------------------------------------- Iteration      1(   6)  ---------------------------------------


    POTLOK:  cpu time    0.0093: real time    0.0095
    SETDIJ:  cpu time    0.0045: real time    0.0050
    TRIAL :  cpu time    1.1148: real time    2.2629
    CORREC:  cpu time    0.3515: real time    0.7010
    CHARGE:  cpu time    0.0747: real time    0.1258
    --------------------------------------------
      LOOP:  cpu time    1.5551: real time    3.1048

 eigenvalue-minimisations  :     0
 total energy-change (2. order) : 0.1273713E+02  (-0.8749412E+01)
 number of electron      61.9999652 magnetization 
 augmentation part       36.1867986 magnetization 

 Free energy of the ion-electron system (eV)
  ---------------------------------------------------
  alpha Z        PSCENC =       587.67023998
  Ewald energy   TEWEN  =     -8632.16693211
  -Hartree energ DENC   =     -3832.51650465
  -exchange      EXHF   =         0.00000000
  -V(xc)+E(xc)   XCENC  =       323.79691883
  PAW double counting   =      9902.33823416   -10290.88238311
  entropy T*S    EENTRO =        -0.00717609
  eigenvalues    EBANDS =     -1343.08550633
  atomic energy  EATOM  =     13280.20280305
  ---------------------------------------------------
  free energy    TOTEN  =        -4.64442688 eV

  energy without entropy =       -4.63725079  energy(sigma->0) =       -4.64203485


--------------------------------------------------------------------------------------------------------




--------------------------------------- Iteration      1(   7)  ---------------------------------------


    POTLOK:  cpu time    0.0085: real time    0.0085
    SETDIJ:  cpu time    0.0044: real time    0.0044
    TRIAL :  cpu time    1.1052: real time    2.2033
    CORREC:  cpu time    0.3533: real time    0.7548
    CHARGE:  cpu time    0.0762: real time    0.1263
    --------------------------------------------
      LOOP:  cpu time    1.5479: real time    3.0980

 eigenvalue-minimisations  :     0
 total energy-change (2. order) :-0.8395505E+01  (-0.7682277E+00)
 number of electron      61.9999651 magnetization 
 augmentation part       36.3309370 magnetization 

 Free energy of the ion-electron system (eV)
  ---------------------------------------------------
  alpha Z        PSCENC =       587.67023998
  Ewald energy   TEWEN  =     -8632.16693211
  -Hartree energ DENC   =     -4122.03222082
  -exchange      EXHF   =         0.00000000
  -V(xc)+E(xc)   XCENC  =       334.12058408
  PAW double counting   =     10307.98501884   -10745.98469192
  entropy T*S    EENTRO =        -0.00555690
  eigenvalues    EBANDS =     -1022.82755667
  atomic energy  EATOM  =     13280.20280305
  ---------------------------------------------------
  free energy    TOTEN  =       -13.03993166 eV

  energy without entropy =      -13.03437476  energy(sigma->0) =      -13.03807936


--------------------------------------------------------------------------------------------------------




--------------------------------------- Iteration      1(   8)  ---------------------------------------


    POTLOK:  cpu time    0.0085: real time    0.0086
    SETDIJ:  cpu time    0.0044: real time    0.0044
    TRIAL :  cpu time    1.1100: real time    2.2581
    CORREC:  cpu time    0.3506: real time    0.7010
    CHARGE:  cpu time    0.0754: real time    0.1254
    --------------------------------------------
      LOOP:  cpu time    1.5492: real time    3.0982

 eigenvalue-minimisations  :     0
 total energy-change (2. order) :-0.7675245E+00  (-0.2879059E+00)
 number of electron      61.9999650 magnetization 
 augmentation part       36.3950042 magnetization 

 Free energy of the ion-electron system (eV)
  ---------------------------------------------------
  alpha Z        PSCENC =       587.67023998
  Ewald energy   TEWEN  =     -8632.16693211
  -Hartree energ DENC   =     -4139.90244306
  -exchange      EXHF   =         0.00000000
  -V(xc)+E(xc)   XCENC  =       334.93289052
  PAW double counting   =     10358.87786794   -10794.22803417
  entropy T*S    EENTRO =        -0.00429539
  eigenvalues    EBANDS =     -1009.18829144
  atomic energy  EATOM  =     13280.20280305
  ---------------------------------------------------
  free energy    TOTEN  =       -13.80745621 eV

  energy without entropy =      -13.80316082  energy(sigma->0) =      -13.80602441


--------------------------------------------------------------------------------------------------------




--------------------------------------- Iteration      1(   9)  ---------------------------------------


    POTLOK:  cpu time    0.0085: real time    0.0086
    SETDIJ:  cpu time    0.0044: real time    0.0044
    TRIAL :  cpu time    1.1139: real time    2.2640
    CORREC:  cpu time    0.3501: real time    0.7004
    CHARGE:  cpu time    0.0734: real time    0.1243
    --------------------------------------------
      LOOP:  cpu time    1.5507: real time    3.1025

 eigenvalue-minimisations  :     0
 total energy-change (2. order) :-0.2883412E+00  (-0.1771137E+00)
 number of electron      61.9999649 magnetization 
 augmentation part       36.4067477 magnetization 

 Free energy of the ion-electron system (eV)
  ---------------------------------------------------
  alpha Z        PSCENC =       587.67023998
  Ewald energy   TEWEN  =     -8632.16693211
  -Hartree energ DENC   =     -4152.59632595
  -exchange      EXHF   =         0.00000000
  -V(xc)+E(xc)   XCENC  =       335.43147019
  PAW double counting   =     10406.69897745   -10837.95628157
  entropy T*S    EENTRO =        -0.00529922
  eigenvalues    EBANDS =     -1001.37545307
  atomic energy  EATOM  =     13280.20280305
  ---------------------------------------------------
  free energy    TOTEN  =       -14.09579742 eV

  energy without entropy =      -14.09049820  energy(sigma->0) =      -14.09403102


--------------------------------------------------------------------------------------------------------




--------------------------------------- Iteration      1(  10)  ---------------------------------------


    POTLOK:  cpu time    0.0085: real time    0.0086
    SETDIJ:  cpu time    0.0043: real time    0.0044
    TRIAL :  cpu time    1.1078: real time    2.2566
    CORREC:  cpu time    0.3487: real time    0.6483
    CHARGE:  cpu time    0.0734: real time    0.1735
    --------------------------------------------
      LOOP:  cpu time    1.5431: real time    3.0920

 eigenvalue-minimisations  :     0
 total energy-change (2. order) :-0.1776673E+00  (-0.2688444E-01)
 number of electron      61.9999649 magnetization 
 augmentation part       36.4131215 magnetization 

 Free energy of the ion-electron system (eV)
  ---------------------------------------------------
  alpha Z        PSCENC =       587.67023998
  Ewald energy   TEWEN  =     -8632.16693211
  -Hartree energ DENC   =     -4166.26344917
  -exchange      EXHF   =         0.00000000
  -V(xc)+E(xc)   XCENC  =       335.82362653
  PAW double counting   =     10447.61096433   -10876.03714182
  entropy T*S    EENTRO =        -0.00589904
  eigenvalues    EBANDS =      -991.10827625
  atomic energy  EATOM  =     13280.20280305
  ---------------------------------------------------
  free energy    TOTEN  =       -14.27346468 eV

  energy without entropy =      -14.26756563  energy(sigma->0) =      -14.27149833


--------------------------------------------------------------------------------------------------------




--------------------------------------- Iteration      1(  11)  ---------------------------------------


    POTLOK:  cpu time    0.0085: real time    0.0086
    SETDIJ:  cpu time    0.0045: real time    0.0044
    TRIAL :  cpu time    1.1088: real time    2.2090
    CORREC:  cpu time    0.3470: real time    0.6974
    CHARGE:  cpu time    0.0728: real time    0.1720
    --------------------------------------------
      LOOP:  cpu time    1.5420: real time    3.0920

 eigenvalue-minimisations  :     0
 total energy-change (2. order) :-0.2688388E-01  (-0.8462254E-02)
 number of electron      61.9999649 magnetization 
 augmentation part       36.4297007 magnetization 

 Free energy of the ion-electron system (eV)
  ---------------------------------------------------
  alpha Z        PSCENC =       587.67023998
  Ewald energy   TEWEN  =     -8632.16693211
  -Hartree energ DENC   =     -4166.89594203
  -exchange      EXHF   =         0.00000000
  -V(xc)+E(xc)   XCENC  =       335.84734516
  PAW double counting   =     10448.49908775   -10876.68031000
  entropy T*S    EENTRO =        -0.00623821
  eigenvalues    EBANDS =      -990.77074130
  atomic energy  EATOM  =     13280.20280305
  ---------------------------------------------------
  free energy    TOTEN  =       -14.30034856 eV

  energy without entropy =      -14.29411035  energy(sigma->0) =      -14.29826916


--------------------------------------------------------------------------------------------------------




--------------------------------------- Iteration      1(  12)  ---------------------------------------


    POTLOK:  cpu time    0.0086: real time    0.0086
    SETDIJ:  cpu time    0.0044: real time    0.0044
    TRIAL :  cpu time    1.1040: real time    2.2032
    CORREC:  cpu time    0.3485: real time    0.6990
    CHARGE:  cpu time    0.0730: real time    0.1730
    --------------------------------------------
      LOOP:  cpu time    1.5388: real time    3.0895

 eigenvalue-minimisations  :     0
 total energy-change (2. order) :-0.8456423E-02  (-0.1697786E-02)
 number of electron      61.9999649 magnetization 
 augmentation part       36.4285626 magnetization 

 Free energy of the ion-electron system (eV)
  ---------------------------------------------------
  alpha Z        PSCENC =       587.67023998
  Ewald energy   TEWEN  =     -8632.16693211
  -Hartree energ DENC   =     -4167.12236254
  -exchange      EXHF   =         0.00000000
  -V(xc)+E(xc)   XCENC  =       335.88061486
  PAW double counting   =     10445.79023951   -10874.36157945
  entropy T*S    EENTRO =        -0.00629227
  eigenvalues    EBANDS =      -990.19559006
  atomic energy  EATOM  =     13280.20280305
  ---------------------------------------------------
  free energy    TOTEN  =       -14.30880498 eV

  energy without entropy =      -14.30251271  energy(sigma->0) =      -14.30670756


--------------------------------------------------------------------------------------------------------




--------------------------------------- Iteration      1(  13)  ---------------------------------------


    POTLOK:  cpu time    0.0085: real time    0.0086
    SETDIJ:  cpu time    0.0044: real time    0.0044
    TRIAL :  cpu time    1.1082: real time    2.1854
    CORREC:  cpu time    0.3488: real time    0.6993
    CHARGE:  cpu time    0.0726: real time    0.1227
    --------------------------------------------
      LOOP:  cpu time    1.5429: real time    3.0424

 eigenvalue-minimisations  :     0
 total energy-change (2. order) :-0.1698451E-02  (-0.3236220E-03)
 number of electron      61.9999649 magnetization 
 augmentation part       36.4282326 magnetization 

 Free energy of the ion-electron system (eV)
  ---------------------------------------------------
  alpha Z        PSCENC =       587.67023998
  Ewald energy   TEWEN  =     -8632.16693211
  -Hartree energ DENC   =     -4166.57423243
  -exchange      EXHF   =         0.00000000
  -V(xc)+E(xc)   XCENC  =       335.86263878
  PAW double counting   =     10443.70506694   -10872.30743753
  entropy T*S    EENTRO =        -0.00629359
  eigenvalues    EBANDS =      -990.69635784
  atomic energy  EATOM  =     13280.20280305
  ---------------------------------------------------
  free energy    TOTEN  =       -14.31050343 eV

  energy without entropy =      -14.30420985  energy(sigma->0) =      -14.30840557


--------------------------------------------------------------------------------------------------------




--------------------------------------- Iteration      1(  14)  ---------------------------------------


    POTLOK:  cpu time    0.0087: real time    0.0576
    SETDIJ:  cpu time    0.0044: real time    0.0044
    TRIAL :  cpu time    1.1048: real time    2.2061
    CORREC:  cpu time    0.3480: real time    0.6975
    CHARGE:  cpu time    0.0732: real time    0.1243
    --------------------------------------------
      LOOP:  cpu time    1.5395: real time    3.0908

 eigenvalue-minimisations  :     0
 total energy-change (2. order) :-0.3228918E-03  (-0.1094250E-03)
 number of electron      61.9999649 magnetization 
 augmentation part       36.4282786 magnetization 

 Free energy of the ion-electron system (eV)
  ---------------------------------------------------
  alpha Z        PSCENC =       587.67023998
  Ewald energy   TEWEN  =     -8632.16693211
  -Hartree energ DENC   =     -4166.62345942
  -exchange      EXHF   =         0.00000000
  -V(xc)+E(xc)   XCENC  =       335.86361884
  PAW double counting   =     10443.50359347   -10872.14193621
  entropy T*S    EENTRO =        -0.00627663
  eigenvalues    EBANDS =      -990.61246033
  atomic energy  EATOM  =     13280.20280305
  ---------------------------------------------------
  free energy    TOTEN  =       -14.31082633 eV

  energy without entropy =      -14.30454970  energy(sigma->0) =      -14.30873412


--------------------------------------------------------------------------------------------------------




--------------------------------------- Iteration      1(  15)  ---------------------------------------


    POTLOK:  cpu time    0.0085: real time    0.0086
    SETDIJ:  cpu time    0.0046: real time    0.0546
    TRIAL :  cpu time    1.1154: real time    2.2142
    CORREC:  cpu time    0.3490: real time    0.6980
    CHARGE:  cpu time    0.0736: real time    0.1247
    --------------------------------------------
      LOOP:  cpu time    1.5515: real time    3.1008

 eigenvalue-minimisations  :     0
 total energy-change (2. order) :-0.1094786E-03  (-0.4121308E-04)
 number of electron      61.9999649 magnetization 
 augmentation part       36.4283811 magnetization 

 Free energy of the ion-electron system (eV)
  ---------------------------------------------------
  alpha Z        PSCENC =       587.67023998
  Ewald energy   TEWEN  =     -8632.16693211
  -Hartree energ DENC   =     -4166.60660809
  -exchange      EXHF   =         0.00000000
  -V(xc)+E(xc)   XCENC  =       335.86400598
  PAW double counting   =     10443.49733015   -10872.14261769
  entropy T*S    EENTRO =        -0.00625170
  eigenvalues    EBANDS =      -990.62288044
  atomic energy  EATOM  =     13280.20280305
  ---------------------------------------------------
  free energy    TOTEN  =       -14.31093580 eV

  energy without entropy =      -14.30468411  energy(sigma->0) =      -14.30885191


--------------------------------------------------------------------------------------------------------




--------------------------------------- Iteration      1(  16)  ---------------------------------------


    POTLOK:  cpu time    0.0086: real time    0.0086
    SETDIJ:  cpu time    0.0044: real time    0.0535
    TRIAL :  cpu time    1.1161: real time    2.2158
    CORREC:  cpu time    0.3513: real time    0.7017
    CHARGE:  cpu time    0.0733: real time    0.1220
    --------------------------------------------
      LOOP:  cpu time    1.5541: real time    3.1023

 eigenvalue-minimisations  :     0
 total energy-change (2. order) :-0.4095202E-04  (-0.1113997E-04)
 number of electron      61.9999649 magnetization 
 augmentation part       36.4286766 magnetization 

 Free energy of the ion-electron system (eV)
  ---------------------------------------------------
  alpha Z        PSCENC =       587.67023998
  Ewald energy   TEWEN  =     -8632.16693211
  -Hartree energ DENC   =     -4166.49797767
  -exchange      EXHF   =         0.00000000
  -V(xc)+E(xc)   XCENC  =       335.86187418
  PAW double counting   =     10443.47916568   -10872.10840549
  entropy T*S    EENTRO =        -0.00623813
  eigenvalues    EBANDS =      -990.74549266
  atomic energy  EATOM  =     13280.20280305
  ---------------------------------------------------
  free energy    TOTEN  =       -14.31097676 eV

  energy without entropy =      -14.30473862  energy(sigma->0) =      -14.30889738


--------------------------------------------------------------------------------------------------------




--------------------------------------- Iteration      1(  17)  ---------------------------------------


    POTLOK:  cpu time    0.0085: real time    0.0590
    SETDIJ:  cpu time    0.0044: real time    0.0045
    TRIAL :  cpu time    1.1126: real time    2.2127
    CORREC:  cpu time    0.3506: real time    0.6997
    CHARGE:  cpu time    0.0732: real time    0.1243
    --------------------------------------------
      LOOP:  cpu time    1.5497: real time    3.1009

 eigenvalue-minimisations  :     0
 total energy-change (2. order) :-0.1109113E-04  (-0.4348503E-05)
 number of electron      61.9999649 magnetization 
 augmentation part       36.4283650 magnetization 

 Free energy of the ion-electron system (eV)
  ---------------------------------------------------
  alpha Z        PSCENC =       587.67023998
  Ewald energy   TEWEN  =     -8632.16693211
  -Hartree energ DENC   =     -4166.58773931
  -exchange      EXHF   =         0.00000000
  -V(xc)+E(xc)   XCENC  =       335.86478770
  PAW double counting   =     10443.65676429   -10872.30049507
  entropy T*S    EENTRO =        -0.00622667
  eigenvalues    EBANDS =      -990.64417823
  atomic energy  EATOM  =     13280.20280305
  ---------------------------------------------------
  free energy    TOTEN  =       -14.31098785 eV

  energy without entropy =      -14.30476118  energy(sigma->0) =      -14.30891229


--------------------------------------------------------------------------------------------------------




--------------------------------------- Iteration      1(  18)  ---------------------------------------


    POTLOK:  cpu time    0.0085: real time    0.0580
    SETDIJ:  cpu time    0.0044: real time    0.0045
    TRIAL :  cpu time    1.1171: real time    2.2163
    CORREC:  cpu time    0.3516: real time    0.7023
    EDDIAG:  cpu time    0.2151: real time    0.4163
    CHARGE:  cpu time    0.0731: real time    0.1726
    --------------------------------------------
      LOOP:  cpu time    1.7702: real time    3.5707

 eigenvalue-minimisations  :     0
 total energy-change (2. order) :-0.4326800E-05  (-0.1916083E-05)
 number of electron      61.9999649 magnetization 
 augmentation part       36.4283966 magnetization 

 Free energy of the ion-electron system (eV)
  ---------------------------------------------------
  alpha Z        PSCENC =       587.67023998
  Ewald energy   TEWEN  =     -8632.16693211
  -Hartree energ DENC   =     -4166.52439833
  -exchange      EXHF   =         0.00000000
  -V(xc)+E(xc)   XCENC  =       335.86235714
  PAW double counting   =     10443.58708530   -10872.21880695
  entropy T*S    EENTRO =        -0.00621998
  eigenvalues    EBANDS =      -990.71711357
  atomic energy  EATOM  =     13280.20280305
  ---------------------------------------------------
  free energy    TOTEN  =       -14.31099217 eV

  energy without entropy =      -14.30477220  energy(sigma->0) =      -14.30891885


--------------------------------------------------------------------------------------------------------


  average scaling for gradient   0.9108


 average (electrostatic) potential at core
  the test charge radii are     1.2098  0.8297
  (the norm of the test charge is              1.0000)
       1 -45.1574       2 -79.8773       3 -79.8809       4 -79.8849
 
 
 
 E-fermi :   6.6776     XC(G=0): -13.0617     alpha+bet :-12.0638


 k-point     1 :       0.0833    0.0833    0.0833
  band No.  band energies     occupation 
      1     -63.0854      2.00000
      2     -63.0747      2.00000
      3     -63.0669      2.00000
      4     -63.0544      2.00000
      5     -63.0445      2.00000
      6     -63.0304      2.00000
      7     -63.0284      2.00000
      8     -63.0259      2.00000
      9     -63.0226      2.00000
     10      -2.7086      2.00000
     11       0.3189      2.00000
     12       0.3257      2.00000
     13       1.0737      2.00000
     14       1.0854      2.00000
     15       1.1406      2.00000
     16       2.1238      2.00000
     17       3.4141      2.00000
     18       3.5152      2.00000
     19       3.5517      2.00000
     20       4.3426      2.00000
     21       4.3710      2.00000
     22       4.7612      2.00000
     23       4.8026      2.00000
     24       4.8433      2.00000
     25       4.9151      2.00000
     26       4.9551      2.00000
     27       4.9832      2.00000
     28       5.0957      2.00000
     29       5.1860      2.00000
     30       5.1918      2.00000
     31       8.0241     -0.00000
     32       8.1045     -0.00000
     33       8.1529     -0.00000
     34      13.8460      0.00000
     35      15.0274      0.00000
     36      15.0845      0.00000
     37      17.4667      0.00000

 k-point     2 :       0.2500    0.0833    0.0833
  band No.  band energies     occupation 
      1     -63.0831      2.00000
      2     -63.0707      2.00000
      3     -63.0611      2.00000
      4     -63.0538      2.00000
      5     -63.0425      2.00000
      6     -63.0403      2.00000
      7     -63.0329      2.00000
      8     -63.0295      2.00000
      9     -63.0170      2.00000
     10      -2.0621      2.00000
     11       0.5351      2.00000
     12       0.5856      2.00000
     13       1.1827      2.00000
     14       1.2203      2.00000
     15       1.3060      2.00000
     16       2.2711      2.00000
     17       3.2636      2.00000
     18       3.6005      2.00000
     19       3.6432      2.00000
     20       3.9822      2.00000
     21       4.1301      2.00000
     22       4.1737      2.00000
     23       4.3764      2.00000
     24       4.4939      2.00000
     25       4.6609      2.00000
     26       4.7260      2.00000
     27       4.7694      2.00000
     28       5.0247      2.00000
     29       5.1016      2.00000
     30       5.1802      2.00000
     31       5.9632      2.00001
     32       9.3344     -0.00000
     33       9.5177     -0.00000
     34      14.5375      0.00000
     35      14.7507      0.00000
     36      15.3294      0.00000
     37      15.9968      0.00000

 k-point     3 :       0.4167    0.0833    0.0833
  band No.  band energies     occupation 
      1     -63.0740      2.00000
      2     -63.0735      2.00000
      3     -63.0606      2.00000
      4     -63.0518      2.00000
      5     -63.0449      2.00000
      6     -63.0408      2.00000
[...]
     25       5.7038      2.00000
     26       6.3784      2.00000
     27       6.5336      2.00000
     28       6.7464      2.00000
     29       6.8366      2.00000
     30       6.8405      2.00000
     31       7.5520      2.00000
     32      10.7877     -0.00000
     33      10.9873     -0.00000
     34      13.5763     -0.00000
     35      14.3896      0.00000
     36      17.6453      0.00000
     37      19.6423      0.00000

 k-point   102 :      -0.0833   -0.2500    0.4167
  band No.  band energies     occupation 
      1     -61.5193      2.00000
      2     -61.5096      2.00000
      3     -61.5000      2.00000
      4     -61.4936      2.00000
      5     -61.4883      2.00000
      6     -61.4828      2.00000
      7     -61.4742      2.00000
      8     -61.4622      2.00000
      9     -61.4555      2.00000
     10       0.3784      2.00000
     11       1.4650      2.00000
     12       2.0527      2.00000
     13       2.3171      2.00000
     14       2.4960      2.00000
     15       2.9245      2.00000
     16       3.6538      2.00000
     17       4.3336      2.00000
     18       4.5273      2.00000
     19       4.5986      2.00000
     20       4.8190      2.00000
     21       5.0735      2.00000
     22       5.4370      2.00000
     23       5.6748      2.00000
     24       5.8734      2.00000
     25       5.9817      2.00000
     26       5.9918      2.00000
     27       6.3895      2.00000
     28       6.6512      2.00000
     29       6.6670      2.00000
     30       6.7013      2.00000
     31       7.3664      2.00000
     32      10.6767     -0.00000
     33      12.5392     -0.00000
     34      14.6975      0.00000
     35      16.6388      0.00000
     36      18.8661      0.00000
     37      20.2104      0.00000

 k-point   103 :       0.0833   -0.0833    0.4167
  band No.  band energies     occupation 
      1     -61.5114      2.00000
      2     -61.5025      2.00000
      3     -61.5005      2.00000
      4     -61.4987      2.00000
      5     -61.4884      2.00000
      6     -61.4878      2.00000
      7     -61.4783      2.00000
      8     -61.4690      2.00000
      9     -61.4675      2.00000
     10      -0.2251      2.00000
     11       1.4464      2.00000
     12       1.6554      2.00000
     13       2.3689      2.00000
     14       2.4165      2.00000
     15       2.6426      2.00000
     16       3.7067      2.00000
     17       4.3952      2.00000
     18       4.5301      2.00000
     19       4.7617      2.00000
     20       4.7747      2.00000
     21       5.3535      2.00000
     22       5.5230      2.00000
     23       5.7941      2.00000
     24       5.9645      2.00000
     25       6.0353      2.00000
     26       6.0774      2.00000
     27       6.3612      2.00000
     28       6.4226      2.00000
     29       6.6117      2.00000
     30       6.8761      2.00000
     31       7.0770      2.00000
     32      13.4501     -0.00000
     33      13.6374     -0.00000
     34      15.5682      0.00000
     35      15.8743      0.00000
     36      18.3532      0.00000
     37      18.3900      0.00000

 k-point   104 :       0.2500   -0.0833    0.4167
  band No.  band energies     occupation 
      1     -61.5197      2.00000
      2     -61.5096      2.00000
      3     -61.4995      2.00000
      4     -61.4940      2.00000
      5     -61.4878      2.00000
      6     -61.4822      2.00000
      7     -61.4748      2.00000
      8     -61.4613      2.00000
      9     -61.4564      2.00000
     10       0.3789      2.00000
     11       1.4651      2.00000
     12       2.0530      2.00000
     13       2.3172      2.00000
     14       2.4957      2.00000
     15       2.9243      2.00000
     16       3.6540      2.00000
     17       4.3338      2.00000
     18       4.5272      2.00000
     19       4.5983      2.00000
     20       4.8181      2.00000
     21       5.0728      2.00000
     22       5.4380      2.00000
     23       5.6752      2.00000
     24       5.8735      2.00000
     25       5.9813      2.00000
     26       5.9920      2.00000
     27       6.3895      2.00000
     28       6.6511      2.00000
     29       6.6670      2.00000
     30       6.7014      2.00000
     31       7.3670      2.00000
     32      10.6792     -0.00000
     33      12.5415     -0.00000
     34      14.6922      0.00000
     35      16.6382      0.00000
     36      18.8631      0.00000
     37      20.2064      0.00000

 k-point   105 :       0.4167   -0.0833    0.4167
  band No.  band energies     occupation 
      1     -61.5177      2.00000
      2     -61.5110      2.00000
      3     -61.4991      2.00000
      4     -61.4891      2.00000
      5     -61.4855      2.00000
      6     -61.4796      2.00000
      7     -61.4726      2.00000
      8     -61.4610      2.00000
      9     -61.4546      2.00000
     10       1.0554      2.00000
     11       1.5272      2.00000
     12       2.2723      2.00000
     13       2.3898      2.00000
     14       2.9325      2.00000
     15       3.2324      2.00000
     16       3.6438      2.00000
     17       4.2595      2.00000
     18       4.5516      2.00000
     19       4.6037      2.00000
     20       4.7712      2.00000
     21       4.9418      2.00000
     22       5.0374      2.00000
     23       5.5915      2.00000
     24       5.7131      2.00000
     25       5.7655      2.00000
     26       5.9540      2.00000
     27       6.2454      2.00000
     28       6.2820      2.00000
     29       6.4051      2.00000
     30       7.3244      2.00000
     31       8.2308      2.00233
     32       8.7929      0.50219
     33      10.2727     -0.00000
     34      16.1931      0.00000
     35      17.9687      0.00000
     36      18.2878      0.00000
     37      19.4725      0.00000

 k-point   106 :      -0.4167   -0.0833    0.4167
  band No.  band energies     occupation 
      1     -61.5178      2.00000
      2     -61.5110      2.00000
      3     -61.4992      2.00000
      4     -61.4890      2.00000
      5     -61.4854      2.00000
      6     -61.4797      2.00000
      7     -61.4726      2.00000
      8     -61.4610      2.00000
      9     -61.4546      2.00000
     10       1.0549      2.00000
     11       1.5274      2.00000
     12       2.2723      2.00000
     13       2.3898      2.00000
     14       2.9327      2.00000
     15       3.2327      2.00000
     16       3.6432      2.00000
     17       4.2599      2.00000
     18       4.5516      2.00000
     19       4.6036      2.00000
     20       4.7714      2.00000
     21       4.9412      2.00000
     22       5.0380      2.00000
     23       5.5919      2.00000
     24       5.7127      2.00000
     25       5.7656      2.00000
     26       5.9544      2.00000
     27       6.2452      2.00000
     28       6.2817      2.00000
     29       6.4053      2.00000
     30       7.3238      2.00000
     31       8.2319      2.00238
     32       8.7942      0.49303
     33      10.2708     -0.00000
     34      16.1926      0.00000
     35      17.9698      0.00000
     36      18.2890      0.00000
     37      19.4707      0.00000

 k-point   107 :      -0.2500   -0.0833    0.4167
  band No.  band energies     occupation 
      1     -61.5198      2.00000
      2     -61.5096      2.00000
      3     -61.4996      2.00000
      4     -61.4938      2.00000
      5     -61.4878      2.00000
      6     -61.4823      2.00000
      7     -61.4748      2.00000
      8     -61.4613      2.00000
      9     -61.4564      2.00000
     10       0.3783      2.00000
     11       1.4651      2.00000
     12       2.0530      2.00000
     13       2.3171      2.00000
     14       2.4957      2.00000
     15       2.9243      2.00000
     16       3.6538      2.00000
     17       4.3338      2.00000
     18       4.5273      2.00000
     19       4.5985      2.00000
     20       4.8182      2.00000
     21       5.0725      2.00000
     22       5.4383      2.00000
     23       5.6755      2.00000
     24       5.8735      2.00000
     25       5.9817      2.00000
     26       5.9919      2.00000
     27       6.3892      2.00000
     28       6.6511      2.00000
     29       6.6671      2.00000
     30       6.7015      2.00000
     31       7.3676      2.00000
     32      10.6810     -0.00000
     33      12.5390     -0.00000
     34      14.6917      0.00000
     35      16.6394      0.00000
     36      18.8624      0.00000
     37      20.2071      0.00000

 k-point   108 :      -0.0833   -0.0833    0.4167
  band No.  band energies     occupation 
      1     -61.5115      2.00000
      2     -61.5026      2.00000
      3     -61.5006      2.00000
      4     -61.4985      2.00000
      5     -61.4883      2.00000
      6     -61.4879      2.00000
      7     -61.4783      2.00000
      8     -61.4689      2.00000
      9     -61.4675      2.00000
     10      -0.2253      2.00000
     11       1.4464      2.00000
     12       1.6554      2.00000
     13       2.3689      2.00000
     14       2.4163      2.00000
     15       2.6427      2.00000
     16       3.7066      2.00000
     17       4.3952      2.00000
     18       4.5302      2.00000
     19       4.7619      2.00000
     20       4.7747      2.00000
     21       5.3534      2.00000
     22       5.5230      2.00000
     23       5.7943      2.00000
     24       5.9648      2.00000
     25       6.0354      2.00000
     26       6.0774      2.00000
     27       6.3613      2.00000
     28       6.4225      2.00000
     29       6.6117      2.00000
     30       6.8761      2.00000
     31       7.0770      2.00000
     32      13.4510     -0.00000
     33      13.6381     -0.00000
     34      15.5669      0.00000
     35      15.8733      0.00000
     36      18.3531      0.00000
     37      18.3886      0.00000


--------------------------------------------------------------------------------------------------------


 soft charge-density along one line, spin component           1
         0         1         2         3         4         5         6         7         8         9
 total charge-density along one line
 
 pseudopotential strength for first ion, spin component:           1
 -8.962  -0.000  -0.000   0.000  -0.000  -0.222   0.000   0.000
 -0.000  -8.962   0.000   0.000  -0.000   0.000  -0.222  -0.000
 -0.000   0.000  -8.936  -0.000  -0.000   0.000  -0.000  -0.225
  0.000   0.000  -0.000  -8.962  -0.000  -0.000  -0.000   0.000
 -0.000  -0.000  -0.000  -0.000  -8.936   0.000   0.000   0.000
 -0.222   0.000   0.000  -0.000   0.000   0.300  -0.000  -0.000
  0.000  -0.222  -0.000  -0.000   0.000  -0.000   0.300   0.000
  0.000  -0.000  -0.225   0.000   0.000  -0.000   0.000   0.301
 -0.000  -0.000   0.000  -0.222   0.000   0.000   0.000  -0.000
  0.000   0.000   0.000   0.000  -0.225  -0.000  -0.000  -0.000
 -0.000  -0.000  -0.000   0.000   0.000   0.000   0.000  -0.000
  0.000   0.000  -0.000  -0.000   0.000  -0.000  -0.000   0.000
  0.000   0.000   0.000  -0.000   0.000  -0.000  -0.000  -0.000
 -0.000  -0.000   0.000  -0.000   0.000   0.000   0.000  -0.000
 -0.000  -0.000  -0.000   0.000   0.000   0.000   0.000   0.000
 -0.000  -0.000  -0.000   0.000  -0.000   0.000   0.000   0.000
  0.000   0.000  -0.000   0.000  -0.000  -0.000  -0.000   0.000
  0.000   0.000   0.000  -0.000  -0.000  -0.000  -0.000  -0.000
 total augmentation occupancy for first ion, spin component:           1
  1.885   0.000  -0.000  -0.000   0.000   0.073  -0.000   0.000   0.000   0.000   0.000   0.000   0.000  -0.000  -0.000  -0.000
  0.000   1.885   0.000  -0.000  -0.000  -0.000   0.072  -0.000   0.000   0.000   0.000   0.000  -0.000   0.000   0.000  -0.000
 -0.000   0.000   1.940  -0.000  -0.000   0.000  -0.000  -0.046   0.000   0.000   0.000   0.000   0.000  -0.000  -0.000  -0.000
 -0.000  -0.000  -0.000   1.885  -0.000   0.000   0.000   0.000   0.073   0.000  -0.000  -0.000   0.000  -0.000   0.000   0.000
  0.000  -0.000  -0.000  -0.000   1.940   0.000   0.000   0.000   0.000  -0.046  -0.000  -0.000  -0.000   0.000  -0.000  -0.000
  0.073  -0.000   0.000   0.000   0.000   0.306   0.000  -0.000  -0.000   0.000  -0.000  -0.000   0.000   0.000  -0.000  -0.000
 -0.000   0.072  -0.000   0.000   0.000   0.000   0.306   0.000  -0.000  -0.000  -0.000  -0.000   0.000  -0.000  -0.000  -0.000
  0.000  -0.000  -0.046   0.000   0.000  -0.000   0.000   0.313  -0.000  -0.000  -0.000  -0.000   0.000   0.000  -0.000   0.000
  0.000   0.000   0.000   0.073   0.000  -0.000  -0.000  -0.000   0.306  -0.000   0.000   0.000  -0.000  -0.000   0.000  -0.000
  0.000   0.000   0.000   0.000  -0.046   0.000  -0.000  -0.000  -0.000   0.313   0.000   0.000  -0.000   0.000  -0.000   0.000
  0.000   0.000   0.000  -0.000  -0.000  -0.000  -0.000  -0.000   0.000   0.000   1.451  -0.461   0.000   0.000  -0.000   0.000
  0.000   0.000   0.000  -0.000  -0.000  -0.000  -0.000  -0.000   0.000   0.000  -0.461   0.310   0.000  -0.000  -0.000  -0.000
  0.000  -0.000   0.000   0.000  -0.000   0.000   0.000   0.000  -0.000  -0.000   0.000   0.000   0.302  -0.000  -0.000  -0.015
 -0.000   0.000  -0.000  -0.000   0.000   0.000  -0.000   0.000  -0.000   0.000   0.000  -0.000  -0.000   0.302   0.000  -0.000
 -0.000   0.000  -0.000   0.000  -0.000  -0.000  -0.000  -0.000   0.000  -0.000  -0.000  -0.000  -0.000   0.000   0.302  -0.000
 -0.000  -0.000  -0.000   0.000  -0.000  -0.000  -0.000   0.000  -0.000   0.000   0.000  -0.000  -0.015  -0.000  -0.000   0.001
 -0.000   0.000  -0.000  -0.000   0.000   0.000   0.000   0.000   0.000  -0.000  -0.000   0.000  -0.000  -0.015   0.000   0.000
  0.000   0.000   0.000  -0.000  -0.000   0.000   0.000   0.000  -0.000   0.000  -0.000   0.000  -0.000   0.000  -0.015   0.000


------------------------ aborting loop because EDIFF is reached ----------------------------------------


    FORLOC:  cpu time    0.0009: real time    0.0010
    FORNL :  cpu time    1.1481: real time    2.2969
    STRESS:  cpu time    3.4553: real time    6.9070
    FORCOR:  cpu time    0.0101: real time    0.0602
    OFIELD:  cpu time    0.0001: real time    0.0001

  FORCE on cell =-STRESS in cart. coord.  units (eV):
  Direction    XX          YY          ZZ          XY          YZ          ZX
  --------------------------------------------------------------------------------------
  Alpha Z   677.13956   677.13956   677.13956
  Ewald   -3017.91403 -3018.03381 -3018.05050    -0.05514    -0.20840     0.21177
  Hartree  1305.82547  1305.74986  1305.73986    -0.02805    -0.11026     0.11390
  E(xc)    -453.20398  -453.20319  -453.20320    -0.00006    -0.00017     0.00017
  Local     404.69514   404.87641   404.90055     0.08020     0.30931    -0.31733
  n-local  -317.56753  -317.58856  -317.59315    -0.00085    -0.00532     0.00552
  augment   605.68944   605.75357   605.75470     0.00003     0.00285    -0.00333
  Kinetic   795.32712   795.32694   795.32724     0.00119     0.00443    -0.00567
  Fock        0.00000     0.00000     0.00000     0.00000     0.00000     0.00000
  -------------------------------------------------------------------------------------
  Total      -0.00882     0.02079     0.01507    -0.00268    -0.00758     0.00503
  in kB      -0.31523     0.74328     0.53853    -0.09587    -0.27110     0.17977
  external pressure =        0.32 kB  Pullay stress =        0.00 kB


 VOLUME and BASIS-vectors are now :
 -----------------------------------------------------------------------------
  energy-cutoff  :      300.00
  volume of cell :       44.82
      direct lattice vectors                 reciprocal lattice vectors
     3.551671554  0.000060485 -0.000205115     0.281557568 -0.000005130  0.000016998
     0.000064712  3.552344373  0.000210690    -0.000004795  0.281504240 -0.000016887
    -0.000214468  0.000213110  3.552521163     0.000016257 -0.000016696  0.281490232

  length of vectors
     3.551671561  3.552344380  3.552521176     0.281557568  0.281504241  0.281490233


 FORCES acting on ions:
    Electron-Ion                     Ewald-Force                    Non-Local-Force
 -----------------------------------------------------------------------------------------------
   0.352E-01 -.399E+00 0.382E+00   -.390E-01 0.411E+00 -.391E+00   0.641E-02 -.177E-01 0.123E-01
   -.128E+01 0.191E+01 0.201E+01   0.129E+01 -.193E+01 -.202E+01   0.155E-01 0.726E-02 -.479E-02
   -.153E+00 -.265E+01 -.142E+01   0.135E+00 0.266E+01 0.144E+01   0.145E-01 0.816E-02 -.742E-03
   0.137E+01 0.113E+01 -.969E+00   -.139E+01 -.113E+01 0.971E+00   0.156E-01 0.575E-02 -.140E-03
 -----------------------------------------------------------------------------------------------
   -.261E-01 -.115E-01 0.315E-02   0.000E+00 0.666E-14 0.666E-14   0.520E-01 0.343E-02 0.667E-02
 
 
 POSITION                                       TOTAL-FORCE (eV/Angst)
 -----------------------------------------------------------------------------------
      0.01721      0.00244      0.00048        -0.004277     -0.003975      0.001305
      1.79221      1.77930      0.00206         0.020855     -0.015137     -0.010434
      1.79452      0.00032      1.77617        -0.009345      0.014697      0.010327
      0.01862      1.77767      1.77737        -0.007233      0.004415     -0.001198
 -----------------------------------------------------------------------------------
    total drift:                                0.025859     -0.008089      0.009827


--------------------------------------------------------------------------------------------------------



  FREE ENERGIE OF THE ION-ELECTRON SYSTEM (eV)
  ---------------------------------------------------
  free  energy   TOTEN  =       -16.36666087 eV

  energy  without entropy=      -16.36089799  energy(sigma->0) =      -16.36473991
 
 d Force = 0.7257953E-04[ 0.537E-04, 0.915E-04]  d Energy = 0.1538513E-03-0.813E-04
 d Force = 0.7280091E-02[ 0.567E-02, 0.889E-02]  d Ewald  = 0.2473087E+01-0.247E+01


--------------------------------------------------------------------------------------------------------


    POTLOK:  cpu time    0.0134: real time    0.0147


--------------------------------------------------------------------------------------------------------


 Conjugate gradient step on ions:
 trial-energy change:   -0.000154  1 .order   -0.000143   -0.000237   -0.000049
  (g-gl).g = 0.966E-03      g.g   = 0.115E-02  gl.gl    = 0.903E-03
 g(Force)  = 0.139E-03   g(Stress)= 0.101E-02 ortho     = 0.128E-03
 gamma     =   1.06999
 trial     =   0.18376
 opt step  =   0.23117  (harmonic =   0.23117) maximal distance =0.00122834
 next E    =   -16.366656   (d E  =  -0.00015)


--------------------------------------------------------------------------------------------------------


  
 reached required accuracy - stopping structural energy minimisation
     LOOP+:  cpu time   18.1013: real time   36.2055
    4ORBIT:  cpu time    0.0000: real time    0.0000

 total amount of memory used by VASP MPI-rank0   168937. kBytes
=======================================================================

   base      :      30000. kBytes
   nonlr-proj:       3835. kBytes
   fftplans  :       1184. kBytes
   grid      :       2084. kBytes
   one-center:         62. kBytes
   wavefun   :     131772. kBytes
 
  
  
 General timing and accounting informations for this job:
 ========================================================
  
                  Total CPU time used (sec):      456.429
                            User time (sec):      452.428
                          System time (sec):        4.001
                         Elapsed time (sec):      913.532
  
                   Maximum memory used (kb):      455708.
                   Average memory used (kb):           0.
  
                          Minor page faults:       140113
                          Major page faults:          133
                 Voluntary context switches:        11583
