<?xml version="1.0" encoding="ISO-8859-1"?>
<modeling>
 <generator>
  <i name="program" type="string">vasp </i>
  <i name="version" type="string">5.4.4.18Apr17-6-g9f103f2a35  </i>
  <i name="subversion" type="string">(build Oct  7 2025 21:22:07) complex            parallel </i>
  <i name="platform" type="string">LinuxIFC </i>
  <i name="date" type="string">2025 11 06 </i>
  <i name="time" type="string">16:11:53 </i>
 </generator>
 <incar>
  <i type="string" name="PREC">normal</i>
  <i type="string" name="ALGO"> All</i>
  <i name="AMIX">      0.02000000</i>
  <i name="BMIX">      0.00010000</i>
  <i type="int" name="NELM">    80</i>
  <i type="int" name="IBRION">     2</i>
  <i name="EDIFF">      0.00001000</i>
  <i name="EDIFFG">     -0.03000000</i>
  <i type="int" name="NSW">    40</i>
  <i type="int" name="ISIF">     3</i>
  <i type="int" name="ISYM">     2</i>
  <i name="ENCUT">    300.00000000</i>
  <i type="string" name="LREAL"> Auto</i>
  <i type="int" name="ISMEAR">     1</i>
  <i name="SIGMA">      0.20000000</i>
  <i type="logical" name="LWAVE"> F  </i>
  <i type="logical" name="LCHARG"> T  </i>
  <v type="int" name="KPOINT_BSE">    -1     0     0     0</v>
  <i type="int" name="NELM">    80</i>
 </incar>
 <structure name="primitive_cell" >
  <crystal>
   <varray name="basis" >
    <v>       3.72400000       0.00000000       0.00000000 </v>
    <v>       0.00000000       3.72400000       0.00000000 </v>
    <v>       0.00000000       0.00000000       3.72400000 </v>
   </varray>
   <i name="volume">     51.64508742 </i>
   <varray name="rec_basis" >
    <v>       0.26852846       0.00000000       0.00000000 </v>
    <v>       0.00000000       0.26852846       0.00000000 </v>
    <v>       0.00000000       0.00000000       0.26852846 </v>
   </varray>
  </crystal>
  <varray name="positions" >
   <v>       0.00500000       0.01000000      -0.00800000 </v>
   <v>       0.49000000      -0.01100000      -0.49500000 </v>
   <v>      -0.48800000       0.49500000       0.00700000 </v>
   <v>       0.01300000      -0.49200000       0.49700000 </v>
  </varray>
 </structure>
 <varray name="primitive_index" >
  <v type="int" >        1 </v>
  <v type="int" >        3 </v>
  <v type="int" >        2 </v>
  <v type="int" >        4 </v>
 </varray>
 <kpoints>
  <generation param="Monkhorst-Pack">
   <v type="int" name="divisions">       6        6        6 </v>
   <v name="usershift">      0.00000000       0.00000000       0.00000000 </v>
   <v name="genvec1">      0.16666667       0.00000000       0.00000000 </v>
   <v name="genvec2">      0.00000000       0.16666667       0.00000000 </v>
   <v name="genvec3">      0.00000000       0.00000000       0.16666667 </v>
   <v name="shift">      0.50000000       0.50000000       0.50000000 </v>
  </generation>
  <varray name="kpointlist" >
   <v>       0.08333333       0.08333333       0.08333333 </v>
   <v>       0.25000000       0.08333333       0.08333333 </v>
   <v>       0.41666667       0.08333333       0.08333333 </v>
   <v>      -0.41666667       0.08333333       0.08333333 </v>
   <v>      -0.25000000       0.08333333       0.08333333 </v>
   <v>      -0.08333333       0.08333333       0.08333333 </v>
   <v>       0.08333333       0.25000000       0.08333333 </v>
   <v>       0.25000000       0.25000000       0.08333333 </v>
   <v>       0.41666667       0.25000000       0.08333333 </v>
   <v>      -0.41666667       0.25000000       0.08333333 </v>
   <v>      -0.25000000       0.25000000       0.08333333 </v>
   <v>      -0.08333333       0.25000000       0.08333333 </v>
   <v>       0.08333333       0.41666667       0.08333333 </v>
   <v>       0.25000000       0.41666667       0.08333333 </v>
   <v>       0.41666667       0.41666667       0.08333333 </v>
   <v>      -0.41666667       0.41666667       0.08333333 </v>
   <v>      -0.25000000       0.41666667       0.08333333 </v>
   <v>      -0.08333333       0.41666667       0.08333333 </v>
   <v>       0.08333333      -0.41666667       0.08333333 </v>
   <v>       0.25000000      -0.41666667       0.08333333 </v>
   <v>       0.41666667      -0.41666667       0.08333333 </v>
   <v>      -0.41666667      -0.41666667       0.08333333 </v>
   <v>      -0.25000000      -0.41666667       0.08333333 </v>
   <v>      -0.08333333      -0.41666667       0.08333333 </v>
   <v>       0.08333333      -0.25000000       0.08333333 </v>
   <v>       0.25000000      -0.25000000       0.08333333 </v>
   <v>       0.41666667      -0.25000000       0.08333333 </v>
   <v>      -0.41666667      -0.25000000       0.08333333 </v>
   <v>      -0.25000000      -0.25000000       0.08333333 </v>
   <v>      -0.08333333      -0.25000000       0.08333333 </v>
   <v>       0.08333333      -0.08333333       0.08333333 </v>
   <v>       0.25000000      -0.08333333       0.08333333 </v>
   <v>       0.41666667      -0.08333333       0.08333333 </v>
   <v>      -0.41666667      -0.08333333       0.08333333 </v>
   <v>      -0.25000000      -0.08333333       0.08333333 </v>
   <v>      -0.08333333      -0.08333333       0.08333333 </v>
   <v>       0.08333333       0.08333333       0.25000000 </v>
   <v>       0.25000000       0.08333333       0.25000000 </v>
   <v>       0.41666667       0.08333333       0.25000000 </v>
   <v>      -0.41666667       0.08333333       0.25000000 </v>
   <v>      -0.25000000       0.08333333       0.25000000 </v>
   <v>      -0.08333333       0.08333333       0.25000000 </v>
   <v>       0.08333333       0.25000000       0.25000000 </v>
   <v>       0.25000000       0.25000000       0.25000000 </v>
   <v>       0.41666667       0.25000000       0.25000000 </v>
   <v>      -0.41666667       0.25000000       0.25000000 </v>
   <v>      -0.25000000       0.25000000       0.25000000 </v>
   <v>      -0.08333333       0.25000000       0.25000000 </v>
   <v>       0.08333333       0.41666667       0.25000000 </v>
   <v>       0.25000000       0.41666667       0.25000000 </v>
   <v>       0.41666667       0.41666667       0.25000000 </v>
   <v>      -0.41666667       0.41666667       0.25000000 </v>
   <v>      -0.25000000       0.41666667       0.25000000 </v>
   <v>      -0.08333333       0.41666667       0.25000000 </v>
   <v>       0.08333333      -0.41666667       0.25000000 </v>
   <v>       0.25000000      -0.41666667       0.25000000 </v>
   <v>       0.41666667      -0.41666667       0.25000000 </v>
   <v>      -0.41666667      -0.41666667       0.25000000 </v>
   <v>      -0.25000000      -0.41666667       0.25000000 </v>
   <v>      -0.08333333      -0.41666667       0.25000000 </v>
   <v>       0.08333333      -0.25000000       0.25000000 </v>
   <v>       0.25000000      -0.25000000       0.25000000 </v>
   <v>       0.41666667      -0.25000000       0.25000000 </v>
   <v>      -0.41666667      -0.25000000       0.25000000 </v>
   <v>      -0.25000000      -0.25000000       0.25000000 </v>
   <v>      -0.08333333      -0.25000000       0.25000000 </v>
   <v>       0.08333333      -0.08333333       0.25000000 </v>
   <v>       0.25000000      -0.08333333       0.25000000 </v>
   <v>       0.41666667      -0.08333333       0.25000000 </v>
   <v>      -0.41666667      -0.08333333       0.25000000 </v>
   <v>      -0.25000000      -0.08333333       0.25000000 </v>
   <v>      -0.08333333      -0.08333333       0.25000000 </v>
   <v>       0.08333333       0.08333333       0.41666667 </v>
   <v>       0.25000000       0.08333333       0.41666667 </v>
   <v>       0.41666667       0.08333333       0.41666667 </v>
   <v>      -0.41666667       0.08333333       0.41666667 </v>
   <v>      -0.25000000       0.08333333       0.41666667 </v>
   <v>      -0.08333333       0.08333333       0.41666667 </v>
   <v>       0.08333333       0.25000000       0.41666667 </v>
   <v>       0.25000000       0.25000000       0.41666667 </v>
   <v>       0.41666667       0.25000000       0.41666667 </v>
   <v>      -0.41666667       0.25000000       0.41666667 </v>
   <v>      -0.25000000       0.25000000       0.41666667 </v>
   <v>      -0.08333333       0.25000000       0.41666667 </v>
   <v>       0.08333333       0.41666667       0.41666667 </v>
   <v>       0.25000000       0.41666667       0.41666667 </v>
   <v>       0.41666667       0.41666667       0.41666667 </v>
   <v>      -0.41666667       0.41666667       0.41666667 </v>
   <v>      -0.25000000       0.41666667       0.41666667 </v>
   <v>      -0.08333333       0.41666667       0.41666667 </v>
   <v>       0.08333333      -0.41666667       0.41666667 </v>
   <v>       0.25000000      -0.41666667       0.41666667 </v>
   <v>       0.41666667      -0.41666667       0.41666667 </v>
   <v>      -0.41666667      -0.41666667       0.41666667 </v>
   <v>      -0.25000000      -0.41666667       0.41666667 </v>
   <v>      -0.08333333      -0.41666667       0.41666667 </v>
   <v>       0.08333333      -0.25000000       0.41666667 </v>
   <v>       0.25000000      -0.25000000       0.41666667 </v>
   <v>       0.41666667      -0.25000000       0.41666667 </v>
   <v>      -0.41666667      -0.25000000       0.41666667 </v>
   <v>      -0.25000000      -0.25000000       0.41666667 </v>
   <v>      -0.08333333      -0.25000000       0.41666667 </v>
   <v>       0.08333333      -0.08333333       0.41666667 </v>
   <v>       0.25000000      -0.08333333       0.41666667 </v>
   <v>       0.41666667      -0.08333333       0.41666667 </v>
   <v>      -0.41666667      -0.08333333       0.41666667 </v>
   <v>      -0.25000000      -0.08333333       0.41666667 </v>
   <v>      -0.08333333      -0.08333333       0.41666667 </v>
  </varray>
  <varray name="weights" >
   <v>       0.00925926 </v>
   <v>       0.00925926 </v>
   <v>       0.00925926 </v>
   <v>       0.00925926 </v>
   <v>       0.00925926 </v>
   <v>       0.00925926 </v>
   <v>       0.00925926 </v>
   <v>       0.00925926 </v>
   <v>       0.00925926 </v>
   <v>       0.00925926 </v>
   <v>       0.00925926 </v>
   <v>       0.00925926 </v>
   <v>       0.00925926 </v>
   <v>       0.00925926 </v>
   <v>       0.00925926 </v>
   <v>       0.00925926 </v>
   <v>       0.00925926 </v>
   <v>       0.00925926 </v>
   <v>       0.00925926 </v>
   <v>       0.00925926 </v>
   <v>       0.00925926 </v>
   <v>       0.00925926 </v>
   <v>       0.00925926 </v>
   <v>       0.00925926 </v>
   <v>       0.00925926 </v>
   <v>       0.00925926 </v>
   <v>       0.00925926 </v>
   <v>       0.00925926 </v>
   <v>       0.00925926 </v>
   <v>       0.00925926 </v>
   <v>       0.00925926 </v>
   <v>       0.00925926 </v>
   <v>       0.00925926 </v>
   <v>       0.00925926 </v>
   <v>       0.00925926 </v>
   <v>       0.00925926 </v>
   <v>       0.00925926 </v>
   <v>       0.00925926 </v>
   <v>       0.00925926 </v>
   <v>       0.00925926 </v>
   <v>       0.00925926 </v>
   <v>       0.00925926 </v>
   <v>       0.00925926 </v>
   <v>       0.00925926 </v>
   <v>       0.00925926 </v>
   <v>       0.00925926 </v>
   <v>       0.00925926 </v>
   <v>       0.00925926 </v>
   <v>       0.00925926 </v>
   <v>       0.00925926 </v>
   <v>       0.00925926 </v>
   <v>       0.00925926 </v>
   <v>       0.00925926 </v>
   <v>       0.00925926 </v>
   <v>       0.00925926 </v>
   <v>       0.00925926 </v>
   <v>       0.00925926 </v>
   <v>       0.00925926 </v>
   <v>       0.00925926 </v>
   <v>       0.00925926 </v>
   <v>       0.00925926 </v>
   <v>       0.00925926 </v>
   <v>       0.00925926 </v>
   <v>       0.00925926 </v>
   <v>       0.00925926 </v>
   <v>       0.00925926 </v>
   <v>       0.00925926 </v>
   <v>       0.00925926 </v>
   <v>       0.00925926 </v>
   <v>       0.00925926 </v>
   <v>       0.00925926 </v>
   <v>       0.00925926 </v>
   <v>       0.00925926 </v>
   <v>       0.00925926 </v>
   <v>       0.00925926 </v>
   <v>       0.00925926 </v>
   <v>       0.00925926 </v>
   <v>       0.00925926 </v>
   <v>       0.00925926 </v>
   <v>       0.00925926 </v>
   <v>       0.00925926 </v>
   <v>       0.00925926 </v>
   <v>       0.00925926 </v>
   <v>       0.00925926 </v>
   <v>       0.00925926 </v>
   <v>       0.00925926 </v>
   <v>       0.00925926 </v>
   <v>       0.00925926 </v>
   <v>       0.00925926 </v>
   <v>       0.00925926 </v>
   <v>       0.00925926 </v>
   <v>       0.00925926 </v>
   <v>       0.00925926 </v>
   <v>       0.00925926 </v>
   <v>       0.00925926 </v>
   <v>       0.00925926 </v>
   <v>       0.00925926 </v>
   <v>       0.00925926 </v>
   <v>       0.00925926 </v>
   <v>       0.00925926 </v>
   <v>       0.00925926 </v>
   <v>       0.00925926 </v>
   <v>       0.00925926 </v>
   <v>       0.00925926 </v>
   <v>       0.00925926 </v>
   <v>       0.00925926 </v>
   <v>       0.00925926 </v>
   <v>       0.00925926 </v>
  </varray>
 </kpoints>
 <parameters>
  <separator name="general" >
   <i type="string" name="SYSTEM">unknown system</i>
   <i type="logical" name="LCOMPAT"> F  </i>
  </separator>
  <separator name="electronic" >
   <i type="string" name="PREC">normal</i>
   <i name="ENMAX">    300.00000000</i>
   <i name="ENAUG">    758.23300000</i>
   <i name="EDIFF">      0.00001000</i>
   <i type="int" name="IALGO">    58</i>
   <i type="int" name="IWAVPR">    11</i>
   <i type="int" name="NBANDS">    37</i>
   <i name="NELECT">     62.00000000</i>
   <i type="int" name="TURBO">     0</i>
   <i type="int" name="IRESTART">     0</i>
   <i type="int" name="NREBOOT">     0</i>
   <i type="int" name="NMIN">     0</i>
   <i name="EREF">      0.00000000</i>
   <separator name="electronic smearing" >
    <i type="int" name="ISMEAR">     1</i>
    <i name="SIGMA">      0.20000000</i>
    <i name="KSPACING">      0.50000000</i>
    <i type="logical" name="KGAMMA"> T  </i>
   </separator>
   <separator name="electronic projectors" >
    <i type="logical" name="LREAL"> T  </i>
    <v name="ROPT">     -0.00050000     -0.00050000</v>
    <i type="int" name="LMAXPAW">  -100</i>
    <i type="int" name="LMAXMIX">     2</i>
    <i type="logical" name="NLSPLINE"> F  </i>
   </separator>
   <separator name="electronic startup" >
    <i type="int" name="ISTART">     0</i>
    <i type="int" name="ICHARG">     2</i>
    <i type="int" name="INIWAV">     1</i>
   </separator>
   <separator name="electronic spin" >
    <i type="int" name="ISPIN">     1</i>
    <i type="logical" name="LNONCOLLINEAR"> F  </i>
    <v name="MAGMOM">      1.00000000      1.00000000      1.00000000      1.00000000</v>
    <i name="NUPDOWN">     -1.00000000</i>
    <i type="logical" name="LSORBIT"> F  </i>
    <v name="SAXIS">      0.00000000      0.00000000      1.00000000</v>
    <i type="logical" name="LSPIRAL"> F  </i>
    <v name="QSPIRAL">      0.00000000      0.00000000      0.00000000</v>
    <i type="logical" name="LZEROZ"> F  </i>
   </separator>
   <separator name="electronic exchange-correlation" >
    <i type="logical" name="LASPH"> F  </i>
    <i type="logical" name="LMETAGGA"> F  </i>
   </separator>
   <separator name="electronic convergence" >
    <i type="int" name="NELM">    80</i>
    <i type="int" name="NELMDL">    -5</i>
    <i type="int" name="NELMIN">     2</i>
    <i name="ENINI">    300.00000000</i>
    <separator name="electronic convergence detail" >
     <i type="logical" name="LDIAG"> T  </i>
     <i type="logical" name="LSUBROT"> F  </i>
     <i name="WEIMIN">      0.00100000</i>
     <i name="EBREAK">      0.00000007</i>
     <i name="DEPER">      0.30000000</i>
     <i type="int" name="NRMM">     4</i>
     <i name="TIME">      0.40000000</i>
    </separator>
   </separator>
   <separator name="electronic mixer" >
    <i name="AMIX">      0.02000000</i>
    <i name="BMIX">      0.00010000</i>
    <i name="AMIN">      0.02000000</i>
    <i name="AMIX_MAG">      0.08000000</i>
    <i name="BMIX_MAG">      0.00010000</i>
    <separator name="electronic mixer details" >
     <i type="int" name="IMIX">     4</i>
     <i type="logical" name="MIXFIRST"> F  </i>
     <i type="int" name="MAXMIX">   -45</i>
     <i name="WC">    100.00000000</i>
     <i type="int" name="INIMIX">     1</i>
     <i type="int" name="MIXPRE">     1</i>
     <i type="int" name="MREMOVE">     5</i>
    </separator>
   </separator>
   <separator name="electronic dipolcorrection" >
    <i type="logical" name="LDIPOL"> F  </i>
    <i type="logical" name="LMONO"> F  </i>
    <i type="int" name="IDIPOL">     0</i>
    <i name="EPSILON">      1.00000000</i>
    <v name="DIPOL">   -100.00000000   -100.00000000   -100.00000000</v>
    <i name="EFIELD">      0.00000000</i>
   </separator>
  </separator>
  <separator name="grids" >
   <i type="int" name="NGX">    16</i>
   <i type="int" name="NGY">    16</i>
   <i type="int" name="NGZ">    16</i>
   <i type="int" name="NGXF">    32</i>
   <i type="int" name="NGYF">    32</i>
   <i type="int" name="NGZF">    32</i>
   <i type="logical" name="ADDGRID"> F  </i>
  </separator>
  <separator name="ionic" >
   <i type="int" name="NSW">    40</i>
   <i type="int" name="IBRION">     2</i>
   <i type="int" name="MDALGO">     0</i>
   <i type="int" name="ISIF">     3</i>
   <i name="PSTRESS">      0.00000000</i>
   <i name="EDIFFG">     -0.03000000</i>
   <i type="int" name="NFREE">     1</i>
   <i name="POTIM">      0.50000000</i>
   <i name="SMASS">     -3.00000000</i>
   <i name="SCALEE">      1.00000000</i>
  </separator>
  <separator name="ionic md" >
   <i name="TEBEG">      0.00010000</i>
   <i name="TEEND">      0.00010000</i>
   <i type="int" name="NBLOCK">     1</i>
   <i type="int" name="KBLOCK">    40</i>
   <i type="int" name="NPACO">   256</i>
   <i name="APACO">     16.00000000</i>
  </separator>
  <separator name="symmetry" >
   <i type="int" name="ISYM">     2</i>
   <i name="SYMPREC">      0.00001000</i>
  </separator>
  <separator name="dos" >
   <i type="int" name="LORBIT">     0</i>
   <v name="RWIGS">     -1.00000000     -1.00000000</v>
   <i type="int" name="NEDOS">   301</i>
   <i name="EMIN">     10.00000000</i>
   <i name="EMAX">    -10.00000000</i>
   <i name="EFERMI">      0.00000000</i>
  </separator>
  <separator name="writing" >
   <i type="int" name="NWRITE">     2</i>
   <i type="logical" name="LWAVE"> F  </i>
   <i type="logical" name="LDOWNSAMPLE"> F  </i>
   <i type="logical" name="LCHARG"> T  </i>
   <i type="logical" name="LPARD"> F  </i>
   <i type="logical" name="LVTOT"> F  </i>
   <i type="logical" name="LVHAR"> F  </i>
   <i type="logical" name="LELF"> F  </i>
   <i type="logical" name="LOPTICS"> F  </i>
   <v name="STM">      0.00000000      0.00000000      0.00000000      0.00000000      0.00000000      0.00000000      0.00000000</v>
  </separator>
  <separator name="performance" >
   <i type="int" name="NPAR">     1</i>
   <i type="int" name="NSIM">     4</i>
   <i type="int" name="NBLK">    -1</i>
   <i type="logical" name="LPLANE"> T  </i>
   <i type="logical" name="LSCALAPACK"> T  </i>
   <i type="logical" name="LSCAAWARE"> F  </i>
   <i type="logical" name="LSCALU"> F  </i>
   <i type="logical" name="LASYNC"> F  </i>
   <i type="logical" name="LORBITALREAL"> F  </i>
  </separator>
  <separator name="miscellaneous" >
   <i type="int" name="IDIOT">     3</i>
   <i type="int" name="ISPECIAL">     0</i>
   <i type="logical" name="LMUSIC"> F  </i>
   <v name="POMASS">    196.96600000     63.54600000</v>
   <v name="DARWINR">      0.00000000      0.00000000</v>
   <v name="DARWINV">      1.00000000      1.00000000</v>
   <i type="logical" name="LCORR"> T  </i>
  </separator>
  <i type="logical" name="GGA_COMPAT"> T  </i>
  <i type="logical" name="LBERRY"> F  </i>
  <i type="int" name="ICORELEVEL">     0</i>
  <i type="logical" name="LDAU"> F  </i>
  <i type="int" name="I_CONSTRAINED_M">     0</i>
  <separator name="electronic exchange-correlation" >
   <i type="string" name="GGA">--</i>
   <i type="int" name="VOSKOWN">     0</i>
   <i type="logical" name="LHFCALC"> F  </i>
   <i type="string" name="PRECFOCK"></i>
   <i type="logical" name="LSYMGRAD"> F  </i>
   <i type="logical" name="LHFONE"> F  </i>
   <i type="logical" name="LRHFCALC"> F  </i>
   <i type="logical" name="LTHOMAS"> F  </i>
   <i type="logical" name="LMODELHF"> F  </i>
   <i name="ENCUT4O">     -1.00000000</i>
   <i type="int" name="EXXOEP">     0</i>
   <i type="int" name="FOURORBIT">     0</i>
   <i name="AEXX">      0.00000000</i>
   <i name="HFALPHA">      0.00000000</i>
   <i name="MCALPHA">      0.00000000</i>
   <i name="ALDAX">      1.00000000</i>
   <i name="AGGAX">      1.00000000</i>
   <i name="ALDAC">      1.00000000</i>
   <i name="AGGAC">      1.00000000</i>
   <i type="int" name="NKREDX">     1</i>
   <i type="int" name="NKREDY">     1</i>
   <i type="int" name="NKREDZ">     1</i>
   <i type="logical" name="SHIFTRED"> F  </i>
   <i type="logical" name="ODDONLY"> F  </i>
   <i type="logical" name="EVENONLY"> F  </i>
   <i type="int" name="LMAXFOCK">     0</i>
   <i type="int" name="NMAXFOCKAE">     0</i>
   <i type="logical" name="LFOCKAEDFT"> F  </i>
   <i name="HFSCREEN">      0.00000000</i>
   <i name="HFSCREENC">      0.00000000</i>
   <i type="int" name="NBANDSGWLOW">     0</i>
  </separator>
  <separator name="vdW DFT" >
   <i type="logical" name="LUSE_VDW"> F  </i>
   <i name="Zab_VDW">     -0.84910000</i>
   <i name="PARAM1">      0.12340000</i>
   <i name="PARAM2">      1.00000000</i>
   <i name="PARAM3">      0.00000000</i>
  </separator>
  <separator name="model GW" >
   <i type="int" name="MODEL_GW">     0</i>
   <i name="MODEL_EPS0">      7.74676311</i>
   <i name="MODEL_ALPHA">      1.00000000</i>
  </separator>
  <separator name="linear response parameters" >
   <i type="logical" name="LEPSILON"> F  </i>
   <i type="logical" name="LRPA"> F  </i>
   <i type="logical" name="LNABLA"> F  </i>
   <i type="logical" name="LVEL"> F  </i>
   <i type="int" name="KINTER">     0</i>
   <i name="CSHIFT">      0.10000000</i>
   <i name="OMEGAMAX">     -1.00000000</i>
   <i name="DEG_THRESHOLD">      0.00200000</i>
   <i name="RTIME">     -0.10000000</i>
   <i name="WPLASMAI">      0.00000000</i>
   <v name="DFIELD">      0.00000000      0.00000000      0.00000000</v>
   <v name="WPLASMA">      0.00000000      0.00000000      0.00000000      0.00000000      0.00000000      0.00000000      0.00000000      0.00000000      0.00000000</v>
  </separator>
  <separator name="orbital magnetization" >
   <i type="logical" name="NUCIND"> F  </i>
   <v name="MAGPOS">      0.00000000      0.00000000      0.00000000</v>
   <i type="logical" name="LNICSALL"> T  </i>
   <i type="logical" name="ORBITALMAG"> F  </i>
   <i type="logical" name="LMAGBLOCH"> F  </i>
   <i type="logical" name="LCHIMAG"> F  </i>
   <i type="logical" name="LGAUGE"> T  </i>
   <i type="int" name="MAGATOM">     0</i>
   <v name="MAGDIPOL">      0.00000000      0.00000000      0.00000000</v>
   <v name="AVECCONST">      0.00000000      0.00000000      0.00000000</v>
  </separator>
  <separator name="response functions" >
   <i type="logical" name="LADDER"> F  </i>
   <i type="logical" name="LRPAFORCE"> F  </i>
   <i type="logical" name="LFXC"> F  </i>
   <i type="logical" name="LHARTREE"> T  </i>
   <i type="int" name="IBSE">     0</i>
   <v type="int" name="KPOINT">    -1     0     0     0</v>
   <i type="logical" name="LTCTE"> F  </i>
   <i type="logical" name="LTETE"> F  </i>
   <i type="logical" name="LTRIPLET"> F  </i>
   <i type="logical" name="LFXCEPS"> F  </i>
   <i type="logical" name="LFXHEG"> F  </i>
   <i type="int" name="NATURALO">     2</i>
   <i type="logical" name="L2ORDER"> F  </i>
   <i type="logical" name="LMP2LT"> F  </i>
   <i type="logical" name="LUSEW"> F  </i>
   <i name="ENCUTGW">     -2.00000000</i>
   <i name="ENCUTGWSOFT">     -2.00000000</i>
   <i name="ENCUTLF">     -1.00000000</i>
   <i type="int" name="LMAXMP2">    -1</i>
   <i name="SCISSOR">      0.00000000</i>
   <i type="int" name="NOMEGA">     0</i>
   <i type="int" name="NOMEGAR">     0</i>
   <i type="int" name="NBANDSGW">    -1</i>
   <i type="int" name="NBANDSO">    -1</i>
   <i type="int" name="NBANDSV">    -1</i>
   <i type="int" name="NELM">    80</i>
   <i type="int" name="NELMHF">     1</i>
   <i type="int" name="DIM">     3</i>
   <i type="int" name="ANTIRES">     0</i>
   <i name="OMEGAMAX">    -30.00000000</i>
   <i name="OMEGAMIN">    -30.00000000</i>
   <i name="OMEGATL">   -200.00000000</i>
   <i type="int" name="OMEGAGRID">   140</i>
   <i name="CSHIFT">     -0.10000000</i>
   <i type="logical" name="SELFENERGY"> F  </i>
   <i type="logical" name="LSPECTRAL"> F  </i>
   <i type="logical" name="LSPECTRALGW"> F  </i>
   <i type="logical" name="LSINGLES"> F  </i>
   <i type="logical" name="LFERMIGW"> F  </i>
   <i type="logical" name="ODDONLYGW"> F  </i>
   <i type="logical" name="EVENONLYGW"> F  </i>
   <i type="int" name="NKREDLFX">     1</i>
   <i type="int" name="NKREDLFY">     1</i>
   <i type="int" name="NKREDLFZ">     1</i>
   <i type="int" name="MAXMEM">  2800</i>
   <i type="int" name="TELESCOPE">     0</i>
   <i type="int" name="TAUPAR">     1</i>
   <i type="int" name="OMEGAPAR">    -1</i>
   <i name="LAMBDA">      1.00000000</i>
  </separator>
  <separator name="External order field" >
   <i name="OFIELD_KAPPA">      0.00000000</i>
   <v name="OFIELD_K">      0.00000000      0.00000000      0.00000000</v>
   <i name="OFIELD_Q6_NEAR">      0.00000000</i>
   <i name="OFIELD_Q6_FAR">      0.00000000</i>
   <i name="OFIELD_A">      0.00000000</i>
  </separator>
 </parameters>
 <atominfo>
  <atoms>       4 </atoms>
  <types>       2 </types>
  <array name="atoms" >
   <dimension dim="1">ion</dimension>
   <field type="string">element</field>
   <field type="int">atomtype</field>
   <set>
    <rc><c>Au</c><c>   1</c></rc>
    <rc><c>Cu</c><c>   2</c></rc>
    <rc><c>Cu</c><c>   2</c></rc>
    <rc><c>Cu</c><c>   2</c></rc>
   </set>
  </array>
  <array name="atomtypes" >
   <dimension dim="1">type</dimension>
   <field type="int">atomspertype</field>
   <field type="string">element</field>
   <field>mass</field>
   <field>valence</field>
   <field type="string">pseudopotential</field>
   <set>
    <rc><c>   1</c><c>Au</c><c>    196.96600000</c><c>     11.00000000</c><c> PAW_PBE Au 06Sep2000                   </c></rc>
    <rc><c>   3</c><c>Cu</c><c>     63.54600000</c><c>     17.00000000</c><c> PAW_PBE Cu_pv 06Sep2000                </c></rc>
   </set>
  </array>
 </atominfo>
 <structure name="initialpos" >
  <crystal>
   <varray name="basis" >
    <v>       3.72400000       0.00000000       0.00000000 </v>
    <v>       0.00000000       3.72400000       0.00000000 </v>
    <v>       0.00000000       0.00000000       3.72400000 </v>
   </varray>
   <i name="volume">     51.64508742 </i>
   <varray name="rec_basis" >
    <v>       0.26852846       0.00000000       0.00000000 </v>
    <v>       0.00000000       0.26852846       0.00000000 </v>
    <v>       0.00000000       0.00000000       0.26852846 </v>
   </varray>
  </crystal>
  <varray name="positions" >
   <v>       0.00500000       0.01000000       0.99200000 </v>
   <v>       0.51200000       0.49500000       0.00700000 </v>
   <v>       0.49000000       0.98900000       0.50500000 </v>
   <v>       0.01300000       0.50800000       0.49700000 </v>
  </varray>
 </structure>
 <calculation>
  <scstep>
   <time name="total">    1.99    3.99</time>
   <energy>
    <i name="alphaZ">    587.67023998 </i>
    <i name="ewald">  -8632.16693211 </i>
    <i name="hartreedc">  -4288.20506751 </i>
    <i name="XCdc">    340.39743434 </i>
    <i name="pawpsdc">  10439.60561056 </i>
    <i name="pawaedc"> -10863.16027776 </i>
    <i name="eentropy">     -0.00072400 </i>
    <i name="bandstr">   -264.90087235 </i>
    <i name="atom">  13280.20280305 </i>
    <i name="e_fr_energy">    599.44221418 </i>
    <i name="e_wo_entrp">    599.44293818 </i>
    <i name="e_0_energy">    599.44245551 </i>
   </energy>
  </scstep>
  <scstep>
   <time name="total">    1.73    3.43</time>
   <energy>
    <i name="e_fr_energy">     13.79803666 </i>
    <i name="e_wo_entrp">     13.79683957 </i>
    <i name="e_0_energy">     13.79763763 </i>
   </energy>
  </scstep>
  <scstep>
   <time name="total">    1.84    3.69</time>
   <energy>
    <i name="e_fr_energy">    -16.69085966 </i>
    <i name="e_wo_entrp">    -16.68816364 </i>
    <i name="e_0_energy">    -16.68996099 </i>
   </energy>
  </scstep>
  <scstep>
   <time name="total">    1.74    3.50</time>
   <energy>
    <i name="e_fr_energy">    -17.36762067 </i>
    <i name="e_wo_entrp">    -17.36632835 </i>
    <i name="e_0_energy">    -17.36718990 </i>
   </energy>
  </scstep>
  <scstep>
   <time name="total">    1.85    3.71</time>
   <energy>
    <i name="e_fr_energy">    -17.38155901 </i>
    <i name="e_wo_entrp">    -17.38026232 </i>
    <i name="e_0_energy">    -17.38112678 </i>
   </energy>
  </scstep>
  <scstep>
   <time name="total">    1.56    3.10</time>
   <energy>
    <i name="e_fr_energy">     -4.64442688 </i>
    <i name="e_wo_entrp">     -4.63725079 </i>
    <i name="e_0_energy">     -4.64203485 </i>
   </energy>
  </scstep>
  <scstep>
   <time name="total">    1.55    3.10</time>
   <energy>
    <i name="e_fr_energy">    -13.03993166 </i>
    <i name="e_wo_entrp">    -13.03437476 </i>
    <i name="e_0_energy">    -13.03807936 </i>
   </energy>
  </scstep>
  <scstep>
   <time name="total">    1.55    3.10</time>
   <energy>
    <i name="e_fr_energy">    -13.80745621 </i>
    <i name="e_wo_entrp">    -13.80316082 </i>
    <i name="e_0_energy">    -13.80602441 </i>
   </energy>
  </scstep>
  <scstep>
   <time name="total">    1.55    3.10</time>
   <energy>
    <i name="e_fr_energy">    -14.09579742 </i>
    <i name="e_wo_entrp">    -14.09049820 </i>
    <i name="e_0_energy">    -14.09403102 </i>
   </energy>
  </scstep>
  <scstep>
   <time name="total">    1.54    3.09</time>
   <energy>
    <i name="e_fr_energy">    -14.27346468 </i>
    <i name="e_wo_entrp">    -14.26756563 </i>
    <i name="e_0_energy">    -14.27149833 </i>
   </energy>
  </scstep>
  <scstep>
   <time name="total">    1.54    3.09</time>
   <energy>
    <i name="e_fr_energy">    -14.30034856 </i>
    <i name="e_wo_entrp">    -14.29411035 </i>
    <i name="e_0_energy">    -14.29826916 </i>
   </energy>
  </scstep>
  <scstep>
   <time name="total">    1.54    3.09</time>
   <energy>
    <i name="e_fr_energy">    -14.30880498 </i>
    <i name="e_wo_entrp">    -14.30251271 </i>
    <i name="e_0_energy">    -14.30670756 </i>
   </energy>
  </scstep>
  <scstep>
   <time name="total">    1.54    3.04</time>
   <energy>
    <i name="e_fr_energy">    -14.31050343 </i>
    <i name="e_wo_entrp">    -14.30420985 </i>
    <i name="e_0_energy">    -14.30840557 </i>
   </energy>
  </scstep>
  <scstep>
   <time name="total">    1.54    3.09</time>
   <energy>
    <i name="e_fr_energy">    -14.31082633 </i>
    <i name="e_wo_entrp">    -14.30454970 </i>
    <i name="e_0_energy">    -14.30873412 </i>
   </energy>
  </scstep>
  <scstep>
   <time name="total">    1.55    3.10</time>
   <energy>
    <i name="e_fr_energy">    -14.31093580 </i>
    <i name="e_wo_entrp">    -14.30468411 </i>
    <i name="e_0_energy">    -14.30885191 </i>
   </energy>
  </scstep>
  <scstep>
   <time name="total">    1.55    3.10</time>
   <energy>
    <i name="e_fr_energy">    -14.31097676 </i>
    <i name="e_wo_entrp">    -14.30473862 </i>
    <i name="e_0_energy">    -14.30889738 </i>
   </energy>
  </scstep>
  <scstep>
   <time name="total">    1.55    3.10</time>
   <energy>
    <i name="e_fr_energy">    -14.31098785 </i>
    <i name="e_wo_entrp">    -14.30476118 </i>
    <i name="e_0_energy">    -14.30891229 </i>
   </energy>
  </scstep>
  <scstep>
   <time name="total">    1.77    3.57</time>
   <energy>
    <i name="alphaZ">    587.67023998 </i>
    <i name="ewald">  -8632.16693211 </i>
    <i name="hartreedc">  -4166.52439833 </i>
    <i name="XCdc">    335.86235714 </i>
    <i name="pawpsdc">  10443.58708530 </i>
    <i name="pawaedc"> -10872.21880695 </i>
    <i name="eentropy">     -0.00621998 </i>
    <i name="bandstr">   -990.71711357 </i>
    <i name="atom">  13280.20280305 </i>
    <i name="e_fr_energy">    -14.31099217 </i>
    <i name="e_wo_entrp">    -14.30477220 </i>
    <i name="e_0_energy">    -14.30891885 </i>
   </energy>
  </scstep>
  <structure>
   <crystal>
    <varray name="basis" >
     <v>       3.72400000       0.00000000       0.00000000 </v>
     <v>       0.00000000       3.72400000       0.00000000 </v>
     <v>       0.00000000       0.00000000       3.72400000 </v>
    </varray>
    <i name="volume">     51.64508742 </i>
    <varray name="rec_basis" >
     <v>       0.26852846       0.00000000       0.00000000 </v>
     <v>       0.00000000       0.26852846       0.00000000 </v>
     <v>       0.00000000       0.00000000       0.26852846 </v>
    </varray>
   </crystal>
   <varray name="positions" >
    <v>       0.00500000       0.01000000       0.99200000 </v>
    <v>       0.51200000       0.49500000       0.00700000 </v>
    <v>       0.49000000       0.98900000       0.50500000 </v>
    <v>       0.01300000       0.50800000       0.49700000 </v>
   </varray>
  </structure>
  <varray name="forces" >
   <v>      -0.18131615      -0.33475587       0.37364537 </v>
   <v>      -0.13140474       0.26977212      -0.10060941 </v>
   <v>       0.54701395       0.22167228      -0.27729123 </v>
   <v>      -0.23429306      -0.15668854       0.00425526 </v>
  </varray>
  <varray name="stress" >
   <v>    -918.08678581       0.82307892      -3.25684783 </v>
   <v>       0.82307903    -923.31288382       1.07755820 </v>
   <v>      -3.25684611       1.07755792    -925.92810510 </v>
  </varray>
  <energy>
   <i name="e_fr_energy">    -14.31099217 </i>
   <i name="e_wo_entrp">    -14.30891885 </i>
   <i name="e_0_energy">     -0.00621998 </i>
  </energy>
  <time name="totalsc">   34.85   69.71</time>
 </calculation>
 <calculation>
  <scstep>
   <time name="total">    3.13    6.28</time>
   <energy>
    <i name="alphaZ">   2227.32054020 </i>
    <i name="ewald"> -13462.35217616 </i>
    <i name="hartreedc">  -3469.62027663 </i>
    <i name="XCdc">    441.49227700 </i>
    <i name="pawpsdc">  17347.42941161 </i>
    <i name="pawaedc"> -18846.00664968 </i>
    <i name="eentropy">     -0.00142522 </i>
    <i name="bandstr">   3745.76223996 </i>
    <i name="atom">  13280.20280305 </i>
    <i name="e_fr_energy">   1264.22194936 </i>
    <i name="e_wo_entrp">   1264.22337458 </i>
    <i name="e_0_energy">   1264.22242443 </i>
   </energy>
  </scstep>
  <scstep>
   <time name="total">    3.11    6.22</time>
   <energy>
    <i name="e_fr_energy">    315.93744162 </i>
    <i name="e_wo_entrp">    315.93469345 </i>
    <i name="e_0_energy">    315.93652556 </i>
   </energy>
  </scstep>
  <scstep>
   <time name="total">    3.12    6.22</time>
   <energy>
    <i name="e_fr_energy">    220.18098632 </i>
    <i name="e_wo_entrp">    220.18381078 </i>
    <i name="e_0_energy">    220.18192781 </i>
   </energy>
  </scstep>
  <scstep>
   <time name="total">    3.12    6.28</time>
   <energy>
    <i name="e_fr_energy">    195.15931020 </i>
    <i name="e_wo_entrp">    195.16020965 </i>
    <i name="e_0_energy">    195.15961002 </i>
   </energy>
  </scstep>
  <scstep>
   <time name="total">    3.10    6.21</time>
   <energy>
    <i name="e_fr_energy">    188.50733534 </i>
    <i name="e_wo_entrp">    188.51031398 </i>
    <i name="e_0_energy">    188.50832822 </i>
   </energy>
  </scstep>
  <scstep>
   <time name="total">    3.09    6.19</time>
   <energy>
    <i name="e_fr_energy">    186.32104332 </i>
    <i name="e_wo_entrp">    186.32275624 </i>
    <i name="e_0_energy">    186.32161430 </i>
   </energy>
  </scstep>
  <scstep>
   <time name="total">    3.10    6.20</time>
   <energy>
    <i name="e_fr_energy">    185.67373256 </i>
    <i name="e_wo_entrp">    185.67893668 </i>
    <i name="e_0_energy">    185.67546726 </i>
   </energy>
  </scstep>
  <scstep>
   <time name="total">    3.10    6.20</time>
   <energy>
    <i name="e_fr_energy">    185.43557375 </i>
    <i name="e_wo_entrp">    185.43202028 </i>
    <i name="e_0_energy">    185.43438926 </i>
   </energy>
  </scstep>
  <scstep>
   <time name="total">    3.10    6.21</time>
   <energy>
    <i name="e_fr_energy">    185.20869706 </i>
    <i name="e_wo_entrp">    185.20811937 </i>
    <i name="e_0_energy">    185.20850450 </i>
   </energy>
  </scstep>
  <scstep>
   <time name="total">    2.93    5.88</time>
   <energy>
    <i name="e_fr_energy">    185.16599977 </i>
    <i name="e_wo_entrp">    185.16618902 </i>
    <i name="e_0_energy">    185.16606285 </i>
   </energy>
  </scstep>
  <scstep>
   <time name="total">    3.10    6.15</time>
   <energy>
    <i name="e_fr_energy">    185.14703566 </i>
    <i name="e_wo_entrp">    185.14481031 </i>
    <i name="e_0_energy">    185.14629388 </i>
   </energy>
  </scstep>
  <scstep>
   <time name="total">    3.10    6.20</time>
   <energy>
    <i name="e_fr_energy">    185.07418058 </i>
    <i name="e_wo_entrp">    185.07180950 </i>
    <i name="e_0_energy">    185.07339022 </i>
   </energy>
  </scstep>
  <scstep>
   <time name="total">    3.10    6.25</time>
   <energy>
    <i name="e_fr_energy">    185.07182213 </i>
    <i name="e_wo_entrp">    185.06927291 </i>
    <i name="e_0_energy">    185.07097239 </i>
   </energy>
  </scstep>
  <scstep>
   <time name="total">    3.10    6.15</time>
   <energy>
    <i name="e_fr_energy">    185.07074252 </i>
    <i name="e_wo_entrp">    185.06812355 </i>
    <i name="e_0_energy">    185.06986953 </i>
   </energy>
  </scstep>
  <scstep>
   <time name="total">    3.10    6.26</time>
   <energy>
    <i name="e_fr_energy">    185.07054370 </i>
    <i name="e_wo_entrp">    185.06788776 </i>
    <i name="e_0_energy">    185.06965839 </i>
   </energy>
  </scstep>
  <scstep>
   <time name="total">    3.10    6.20</time>
   <energy>
    <i name="e_fr_energy">    185.07047422 </i>
    <i name="e_wo_entrp">    185.06779192 </i>
    <i name="e_0_energy">    185.06958012 </i>
   </energy>
  </scstep>
  <scstep>
   <time name="total">    3.11    6.21</time>
   <energy>
    <i name="e_fr_energy">    185.07044945 </i>
    <i name="e_wo_entrp">    185.06775446 </i>
    <i name="e_0_energy">    185.06955112 </i>
   </energy>
  </scstep>
  <scstep>
   <time name="total">    3.32    6.62</time>
   <energy>
    <i name="alphaZ">   2227.32054020 </i>
    <i name="ewald"> -13462.35217616 </i>
    <i name="hartreedc">  -2109.36209483 </i>
    <i name="XCdc">    378.28755568 </i>
    <i name="pawpsdc">  15903.08665688 </i>
    <i name="pawaedc"> -16480.32060366 </i>
    <i name="eentropy">      0.00269985 </i>
    <i name="bandstr">    448.20506995 </i>
    <i name="atom">  13280.20280305 </i>
    <i name="e_fr_energy">    185.07044608 </i>
    <i name="e_wo_entrp">    185.06774623 </i>
    <i name="e_0_energy">    185.06954613 </i>
   </energy>
  </scstep>
  <structure>
   <crystal>
    <varray name="basis" >
     <v>       2.39482230       0.00119163      -0.00471516 </v>
     <v>       0.00119163       2.38725612       0.00156006 </v>
     <v>      -0.00471516       0.00156006       2.38346988 </v>
    </varray>
    <i name="volume">     13.62636422 </i>
    <varray name="rec_basis" >
     <v>       0.41756925      -0.00020897       0.00082620 </v>
     <v>      -0.00020897       0.41889124      -0.00027459 </v>
     <v>       0.00082620      -0.00027459       0.41955820 </v>
    </varray>
   </crystal>
   <varray name="positions" >
    <v>       0.00265114       0.00566340       0.99684040 </v>
    <v>       0.51029771       0.49849477       0.00569665 </v>
    <v>       0.49708631       0.99187166       0.50140782 </v>
    <v>       0.00996484       0.50597017       0.49705512 </v>
   </varray>
  </structure>
  <varray name="forces" >
   <v>      -0.38618268      -1.06671584       0.83937741 </v>
   <v>      -3.09100120       0.98463984      -2.57228926 </v>
   <v>       6.26270241       4.28069468      -0.63100397 </v>
   <v>      -2.78551853      -4.19861868       2.36391581 </v>
  </varray>
  <varray name="stress" >
   <v>   58597.34506105     -17.17638281     145.19722012 </v>
   <v>     -17.17638554   58656.12603162     -14.95179102 </v>
   <v>     145.19721644     -14.95179017   58618.55067734 </v>
  </varray>
  <energy>
   <i name="e_fr_energy">    185.07044608 </i>
   <i name="e_wo_entrp">    185.06954613 </i>
   <i name="e_0_energy">      0.00269985 </i>
  </energy>
  <time name="totalsc">   69.65  139.39</time>
 </calculation>
 <calculation>
  <scstep>
   <time name="total">    1.63    3.29</time>
   <energy>
    <i name="alphaZ">    664.14092554 </i>
    <i name="ewald">  -8989.96008498 </i>
    <i name="hartreedc">   -365.72709861 </i>
    <i name="XCdc">    206.24844644 </i>
    <i name="pawpsdc">   5235.34316650 </i>
    <i name="pawaedc">  -5202.17874949 </i>
    <i name="eentropy">     -0.00017351 </i>
    <i name="bandstr">  -1186.67166990 </i>
    <i name="atom">  13280.20280305 </i>
    <i name="e_fr_energy">   3641.40043839 </i>
    <i name="e_wo_entrp">   3641.40061190 </i>
    <i name="e_0_energy">   3641.40049622 </i>
   </energy>
  </scstep>
  <scstep>
   <time name="total">    1.64    3.24</time>
   <energy>
    <i name="e_fr_energy">   3478.82590915 </i>
    <i name="e_wo_entrp">   3478.82827504 </i>
    <i name="e_0_energy">   3478.82669778 </i>
   </energy>
  </scstep>
  <scstep>
   <time name="total">    1.64    3.29</time>
   <energy>
    <i name="e_fr_energy">   1708.08135059 </i>
    <i name="e_wo_entrp">   1708.08158467 </i>
    <i name="e_0_energy">   1708.08142861 </i>
   </energy>
  </scstep>
  <scstep>
   <time name="total">    1.64    3.29</time>
   <energy>
    <i name="e_fr_energy">    690.29017647 </i>
    <i name="e_wo_entrp">    690.28839643 </i>
    <i name="e_0_energy">    690.28958313 </i>
   </energy>
  </scstep>
  <scstep>
   <time name="total">    1.63    3.28</time>
   <energy>
    <i name="e_fr_energy">    311.02895620 </i>
    <i name="e_wo_entrp">    311.02932178 </i>
    <i name="e_0_energy">    311.02907806 </i>
   </energy>
  </scstep>
  <scstep>
   <time name="total">    1.64    3.24</time>
   <energy>
    <i name="e_fr_energy">     94.33945733 </i>
    <i name="e_wo_entrp">     94.33975487 </i>
    <i name="e_0_energy">     94.33955651 </i>
   </energy>
  </scstep>
  <scstep>
   <time name="total">    1.63    3.29</time>
   <energy>
    <i name="e_fr_energy">     36.12079152 </i>
    <i name="e_wo_entrp">     36.12313630 </i>
    <i name="e_0_energy">     36.12157311 </i>
   </energy>
  </scstep>
  <scstep>
   <time name="total">    1.63    3.28</time>
   <energy>
    <i name="e_fr_energy">     11.59859168 </i>
    <i name="e_wo_entrp">     11.59669606 </i>
    <i name="e_0_energy">     11.59795981 </i>
   </energy>
  </scstep>
  <scstep>
   <time name="total">    1.62    3.23</time>
   <energy>
    <i name="e_fr_energy">     -1.14249450 </i>
    <i name="e_wo_entrp">     -1.14940402 </i>
    <i name="e_0_energy">     -1.14479768 </i>
   </energy>
  </scstep>
  <scstep>
   <time name="total">    1.63    3.28</time>
   <energy>
    <i name="e_fr_energy">     -7.44353174 </i>
    <i name="e_wo_entrp">     -7.44680159 </i>
    <i name="e_0_energy">     -7.44462169 </i>
   </energy>
  </scstep>
  <scstep>
   <time name="total">    1.62    3.22</time>
   <energy>
    <i name="e_fr_energy">    -10.81422106 </i>
    <i name="e_wo_entrp">    -10.81594001 </i>
    <i name="e_0_energy">    -10.81479404 </i>
   </energy>
  </scstep>
  <scstep>
   <time name="total">    1.62    3.27</time>
   <energy>
    <i name="e_fr_energy">    -12.83803779 </i>
    <i name="e_wo_entrp">    -12.83852184 </i>
    <i name="e_0_energy">    -12.83819914 </i>
   </energy>
  </scstep>
  <scstep>
   <time name="total">    1.62    3.22</time>
   <energy>
    <i name="e_fr_energy">    -13.99042375 </i>
    <i name="e_wo_entrp">    -13.99000790 </i>
    <i name="e_0_energy">    -13.99028513 </i>
   </energy>
  </scstep>
  <scstep>
   <time name="total">    1.63    3.28</time>
   <energy>
    <i name="e_fr_energy">    -14.63110930 </i>
    <i name="e_wo_entrp">    -14.63166115 </i>
    <i name="e_0_energy">    -14.63129325 </i>
   </energy>
  </scstep>
  <scstep>
   <time name="total">    1.62    3.22</time>
   <energy>
    <i name="e_fr_energy">    -14.97477880 </i>
    <i name="e_wo_entrp">    -14.97175375 </i>
    <i name="e_0_energy">    -14.97377045 </i>
   </energy>
  </scstep>
  <scstep>
   <time name="total">    1.46    2.97</time>
   <energy>
    <i name="e_fr_energy">    -15.22788138 </i>
    <i name="e_wo_entrp">    -15.22181987 </i>
    <i name="e_0_energy">    -15.22586088 </i>
   </energy>
  </scstep>
  <scstep>
   <time name="total">    1.63    3.23</time>
   <energy>
    <i name="e_fr_energy">    -15.61795014 </i>
    <i name="e_wo_entrp">    -15.61445056 </i>
    <i name="e_0_energy">    -15.61678361 </i>
   </energy>
  </scstep>
  <scstep>
   <time name="total">    2.60    5.20</time>
   <energy>
    <i name="e_fr_energy">    -15.82265844 </i>
    <i name="e_wo_entrp">    -15.81321555 </i>
    <i name="e_0_energy">    -15.81951081 </i>
   </energy>
  </scstep>
  <scstep>
   <time name="total">    1.63    3.28</time>
   <energy>
    <i name="e_fr_energy">    -15.04510041 </i>
    <i name="e_wo_entrp">    -15.03578199 </i>
    <i name="e_0_energy">    -15.04199427 </i>
   </energy>
  </scstep>
  <scstep>
   <time name="total">    1.63    3.28</time>
   <energy>
    <i name="e_fr_energy">    -15.83982460 </i>
    <i name="e_wo_entrp">    -15.83129589 </i>
    <i name="e_0_energy">    -15.83698170 </i>
   </energy>
  </scstep>
  <scstep>
   <time name="total">    1.62    3.23</time>
   <energy>
    <i name="e_fr_energy">    -16.16118559 </i>
    <i name="e_wo_entrp">    -16.15283338 </i>
    <i name="e_0_energy">    -16.15840152 </i>
   </energy>
  </scstep>
  <scstep>
   <time name="total">    1.63    3.28</time>
   <energy>
    <i name="e_fr_energy">    -16.20209415 </i>
    <i name="e_wo_entrp">    -16.19484951 </i>
    <i name="e_0_energy">    -16.19967927 </i>
   </energy>
  </scstep>
  <scstep>
   <time name="total">    1.63    3.23</time>
   <energy>
    <i name="e_fr_energy">    -16.22809158 </i>
    <i name="e_wo_entrp">    -16.22103489 </i>
    <i name="e_0_energy">    -16.22573935 </i>
   </energy>
  </scstep>
  <scstep>
   <time name="total">    1.63    3.28</time>
   <energy>
    <i name="e_fr_energy">    -16.23609542 </i>
    <i name="e_wo_entrp">    -16.22919787 </i>
    <i name="e_0_energy">    -16.23379624 </i>
   </energy>
  </scstep>
  <scstep>
   <time name="total">    1.62    3.28</time>
   <energy>
    <i name="e_fr_energy">    -16.23832316 </i>
    <i name="e_wo_entrp">    -16.23156976 </i>
    <i name="e_0_energy">    -16.23607202 </i>
   </energy>
  </scstep>
  <scstep>
   <time name="total">    1.63    3.23</time>
   <energy>
    <i name="e_fr_energy">    -16.23920618 </i>
    <i name="e_wo_entrp">    -16.23260179 </i>
    <i name="e_0_energy">    -16.23700472 </i>
   </energy>
  </scstep>
  <scstep>
   <time name="total">    1.62    3.28</time>
   <energy>
    <i name="e_fr_energy">    -16.23951570 </i>
    <i name="e_wo_entrp">    -16.23296040 </i>
    <i name="e_0_energy">    -16.23733060 </i>
   </energy>
  </scstep>
  <scstep>
   <time name="total">    1.63    3.29</time>
   <energy>
    <i name="e_fr_energy">    -16.23955035 </i>
    <i name="e_wo_entrp">    -16.23308863 </i>
    <i name="e_0_energy">    -16.23739644 </i>
   </energy>
  </scstep>
  <scstep>
   <time name="total">    1.62    3.22</time>
   <energy>
    <i name="e_fr_energy">    -16.23957044 </i>
    <i name="e_wo_entrp">    -16.23313474 </i>
    <i name="e_0_energy">    -16.23742520 </i>
   </energy>
  </scstep>
  <scstep>
   <time name="total">    1.84    3.69</time>
   <energy>
    <i name="alphaZ">    664.14092554 </i>
    <i name="ewald">  -8989.96008498 </i>
    <i name="hartreedc">  -3955.98776165 </i>
    <i name="XCdc">    337.50297113 </i>
    <i name="pawpsdc">  10490.19186702 </i>
    <i name="pawaedc"> -10928.04440389 </i>
    <i name="eentropy">     -0.00642002 </i>
    <i name="bandstr">   -914.27945215 </i>
    <i name="atom">  13280.20280305 </i>
    <i name="e_fr_energy">    -16.23957163 </i>
    <i name="e_wo_entrp">    -16.23315161 </i>
    <i name="e_0_energy">    -16.23743162 </i>
   </energy>
  </scstep>
  <structure>
   <crystal>
    <varray name="basis" >
     <v>       3.57590666       0.00013277      -0.00052535 </v>
     <v>       0.00013277       3.57506366       0.00017382 </v>
     <v>      -0.00052535       0.00017382       3.57464180 </v>
    </varray>
    <i name="volume">     45.69855546 </i>
    <varray name="rec_basis" >
     <v>       0.27964936      -0.00001039       0.00004110 </v>
     <v>      -0.00001039       0.27971530      -0.00001360 </v>
     <v>       0.00004110      -0.00001360       0.27974832 </v>
    </varray>
   </crystal>
   <varray name="positions" >
    <v>       0.00588050       0.01167733       0.99012270 </v>
    <v>       0.51265586       0.49364815       0.00751399 </v>
    <v>       0.48730646       0.98789276       0.50637827 </v>
    <v>       0.01415718       0.50878176       0.49698505 </v>
   </varray>
  </structure>
  <varray name="forces" >
   <v>      -0.45357050      -0.62600617       0.75001301 </v>
   <v>      -0.16945319       0.52550560      -0.10670499 </v>
   <v>       1.03943721       0.32113136      -0.54307262 </v>
   <v>      -0.41641352      -0.22063079      -0.10023539 </v>
  </varray>
  <varray name="stress" >
   <v>    -117.53853694       0.82633588      -6.43945875 </v>
   <v>       0.82633511    -121.36121583       4.99527544 </v>
   <v>      -6.43945985       4.99527791    -121.64467212 </v>
  </varray>
  <energy>
   <i name="e_fr_energy">    -16.23957163 </i>
   <i name="e_wo_entrp">    -16.23743162 </i>
   <i name="e_0_energy">     -0.00642002 </i>
  </energy>
  <time name="totalsc">   54.93  109.91</time>
 </calculation>
 <calculation>
  <scstep>
   <time name="total">    1.65    3.30</time>
   <energy>
    <i name="alphaZ">    668.78006710 </i>
    <i name="ewald">  -9010.87128090 </i>
    <i name="hartreedc">  -3968.47715763 </i>
    <i name="XCdc">    338.54777763 </i>
    <i name="pawpsdc">  10524.81014163 </i>
    <i name="pawaedc"> -10968.82100507 </i>
    <i name="eentropy">     -0.00623608 </i>
    <i name="bandstr">   -880.33438414 </i>
    <i name="atom">  13280.20280305 </i>
    <i name="e_fr_energy">    -16.16945835 </i>
    <i name="e_wo_entrp">    -16.16322227 </i>
    <i name="e_0_energy">    -16.16737965 </i>
   </energy>
  </scstep>
  <scstep>
   <time name="total">    1.64    3.29</time>
   <energy>
    <i name="e_fr_energy">    -16.25170185 </i>
    <i name="e_wo_entrp">    -16.24544191 </i>
    <i name="e_0_energy">    -16.24961520 </i>
   </energy>
  </scstep>
  <scstep>
   <time name="total">    1.63    3.23</time>
   <energy>
    <i name="e_fr_energy">    -16.25754825 </i>
    <i name="e_wo_entrp">    -16.25129118 </i>
    <i name="e_0_energy">    -16.25546256 </i>
   </energy>
  </scstep>
  <scstep>
   <time name="total">    1.64    3.29</time>
   <energy>
    <i name="e_fr_energy">    -16.25854407 </i>
    <i name="e_wo_entrp">    -16.25234298 </i>
    <i name="e_0_energy">    -16.25647704 </i>
   </energy>
  </scstep>
  <scstep>
   <time name="total">    1.63    3.28</time>
   <energy>
    <i name="e_fr_energy">    -16.25911501 </i>
    <i name="e_wo_entrp">    -16.25295000 </i>
    <i name="e_0_energy">    -16.25706001 </i>
   </energy>
  </scstep>
  <scstep>
   <time name="total">    1.64    3.29</time>
   <energy>
    <i name="e_fr_energy">    -16.25931680 </i>
    <i name="e_wo_entrp">    -16.25318564 </i>
    <i name="e_0_energy">    -16.25727308 </i>
   </energy>
  </scstep>
  <scstep>
   <time name="total">    1.63    3.23</time>
   <energy>
    <i name="e_fr_energy">    -16.25942446 </i>
    <i name="e_wo_entrp">    -16.25330319 </i>
    <i name="e_0_energy">    -16.25738404 </i>
   </energy>
  </scstep>
  <scstep>
   <time name="total">    1.64    3.29</time>
   <energy>
    <i name="e_fr_energy">    -16.25944611 </i>
    <i name="e_wo_entrp">    -16.25333206 </i>
    <i name="e_0_energy">    -16.25740809 </i>
   </energy>
  </scstep>
  <scstep>
   <time name="total">    1.84    3.69</time>
   <energy>
    <i name="alphaZ">    668.78006710 </i>
    <i name="ewald">  -9010.87128090 </i>
    <i name="hartreedc">  -3943.90991397 </i>
    <i name="XCdc">    337.60195361 </i>
    <i name="pawpsdc">  10494.27981248 </i>
    <i name="pawaedc"> -10932.58194382 </i>
    <i name="eentropy">     -0.00611389 </i>
    <i name="bandstr">   -909.75483617 </i>
    <i name="atom">  13280.20280305 </i>
    <i name="e_fr_energy">    -16.25945266 </i>
    <i name="e_wo_entrp">    -16.25333878 </i>
    <i name="e_0_energy">    -16.25741470 </i>
   </energy>
  </scstep>
  <structure>
   <crystal>
    <varray name="basis" >
     <v>       3.56765987       0.00014016      -0.00055461 </v>
     <v>       0.00014016       3.56676993       0.00018350 </v>
     <v>      -0.00055461       0.00018350       3.56632458 </v>
    </varray>
    <i name="volume">     45.38155728 </i>
    <varray name="rec_basis" >
     <v>       0.28029579      -0.00001102       0.00004359 </v>
     <v>      -0.00001102       0.28036572      -0.00001443 </v>
     <v>       0.00004359      -0.00001443       0.28040073 </v>
    </varray>
   </crystal>
   <varray name="positions" >
    <v>       0.00586532       0.01164931       0.99015399 </v>
    <v>       0.51264486       0.49367074       0.00750556 </v>
    <v>       0.48735224       0.98791132       0.50635505 </v>
    <v>       0.01413757       0.50876864       0.49698540 </v>
   </varray>
  </structure>
  <varray name="forces" >
   <v>      -0.46672344      -0.64222103       0.76691133 </v>
   <v>      -0.17353652       0.53640252      -0.10799060 </v>
   <v>       1.06703887       0.32885107      -0.55822111 </v>
   <v>      -0.42677891      -0.22303256      -0.10069962 </v>
  </varray>
  <varray name="stress" >
   <v>     -72.52386469       0.90295758      -6.47987386 </v>
   <v>       0.90295653     -76.18146163       5.16053208 </v>
   <v>      -6.47987294       5.16053201     -76.49486703 </v>
  </varray>
  <energy>
   <i name="e_fr_energy">    -16.25945266 </i>
   <i name="e_wo_entrp">    -16.25741470 </i>
   <i name="e_0_energy">     -0.00611389 </i>
  </energy>
  <time name="totalsc">   19.98   39.98</time>
 </calculation>
 <calculation>
  <scstep>
   <time name="total">    1.66    3.31</time>
   <energy>
    <i name="alphaZ">    676.70924183 </i>
    <i name="ewald">  -9046.38962545 </i>
    <i name="hartreedc">  -3964.85793129 </i>
    <i name="XCdc">    339.36688333 </i>
    <i name="pawpsdc">  10553.03980289 </i>
    <i name="pawaedc"> -11001.77637847 </i>
    <i name="eentropy">     -0.00581399 </i>
    <i name="bandstr">   -852.30467965 </i>
    <i name="atom">  13280.20280305 </i>
    <i name="e_fr_energy">    -16.01599765 </i>
    <i name="e_wo_entrp">    -16.01018366 </i>
    <i name="e_0_energy">    -16.01405965 </i>
   </energy>
  </scstep>
  <scstep>
   <time name="total">    1.65    3.30</time>
   <energy>
    <i name="e_fr_energy">    -16.25078822 </i>
    <i name="e_wo_entrp">    -16.24486264 </i>
    <i name="e_0_energy">    -16.24881303 </i>
   </energy>
  </scstep>
  <scstep>
   <time name="total">    1.66    3.31</time>
   <energy>
    <i name="e_fr_energy">    -16.26740350 </i>
    <i name="e_wo_entrp">    -16.26142577 </i>
    <i name="e_0_energy">    -16.26541092 </i>
   </energy>
  </scstep>
  <scstep>
   <time name="total">    1.65    3.30</time>
   <energy>
    <i name="e_fr_energy">    -16.27022369 </i>
    <i name="e_wo_entrp">    -16.26427207 </i>
    <i name="e_0_energy">    -16.26823982 </i>
   </energy>
  </scstep>
  <scstep>
   <time name="total">    1.66    3.31</time>
   <energy>
    <i name="e_fr_energy">    -16.27182274 </i>
    <i name="e_wo_entrp">    -16.26586989 </i>
    <i name="e_0_energy">    -16.26983845 </i>
   </energy>
  </scstep>
  <scstep>
   <time name="total">    1.65    3.30</time>
   <energy>
    <i name="e_fr_energy">    -16.27239227 </i>
    <i name="e_wo_entrp">    -16.26644375 </i>
    <i name="e_0_energy">    -16.27040943 </i>
   </energy>
  </scstep>
  <scstep>
   <time name="total">    1.65    3.30</time>
   <energy>
    <i name="e_fr_energy">    -16.27269621 </i>
    <i name="e_wo_entrp">    -16.26674871 </i>
    <i name="e_0_energy">    -16.27071371 </i>
   </energy>
  </scstep>
  <scstep>
   <time name="total">    1.64    3.29</time>
   <energy>
    <i name="e_fr_energy">    -16.27275670 </i>
    <i name="e_wo_entrp">    -16.26681464 </i>
    <i name="e_0_energy">    -16.27077601 </i>
   </energy>
  </scstep>
  <scstep>
   <time name="total">    1.65    3.30</time>
   <energy>
    <i name="e_fr_energy">    -16.27277476 </i>
    <i name="e_wo_entrp">    -16.26683135 </i>
    <i name="e_0_energy">    -16.27079363 </i>
   </energy>
  </scstep>
  <scstep>
   <time name="total">    1.85    3.70</time>
   <energy>
    <i name="alphaZ">    676.70924183 </i>
    <i name="ewald">  -9046.38962545 </i>
    <i name="hartreedc">  -3923.63053635 </i>
    <i name="XCdc">    337.77683999 </i>
    <i name="pawpsdc">  10501.85048840 </i>
    <i name="pawaedc"> -10940.89448073 </i>
    <i name="eentropy">     -0.00594365 </i>
    <i name="bandstr">   -901.89156573 </i>
    <i name="atom">  13280.20280305 </i>
    <i name="e_fr_energy">    -16.27277841 </i>
    <i name="e_wo_entrp">    -16.26683475 </i>
    <i name="e_0_energy">    -16.27079719 </i>
   </energy>
  </scstep>
  <structure>
   <crystal>
    <varray name="basis" >
     <v>       3.55373967       0.00015264      -0.00060399 </v>
     <v>       0.00015264       3.55277048       0.00019983 </v>
     <v>      -0.00060399       0.00019983       3.55228548 </v>
    </varray>
    <i name="volume">     44.84981000 </i>
    <varray name="rec_basis" >
     <v>       0.28139372      -0.00001209       0.00004785 </v>
     <v>      -0.00001209       0.28147048      -0.00001584 </v>
     <v>       0.00004785      -0.00001584       0.28150891 </v>
    </varray>
   </crystal>
   <varray name="positions" >
    <v>       0.00583966       0.01160189       0.99020692 </v>
    <v>       0.51262625       0.49370895       0.00749130 </v>
    <v>       0.48742970       0.98794272       0.50631578 </v>
    <v>       0.01410439       0.50874645       0.49698600 </v>
   </varray>
  </structure>
  <varray name="forces" >
   <v>      -0.48591561      -0.66471162       0.79218618 </v>
   <v>      -0.17573467       0.55294826      -0.10615677 </v>
   <v>       1.09833494       0.33346620      -0.57970113 </v>
   <v>      -0.43668465      -0.22170284      -0.10632828 </v>
  </varray>
  <varray name="stress" >
   <v>       3.19042054       0.92505602      -6.65208168 </v>
   <v>       0.92505720      -0.36397105       5.37317885 </v>
   <v>      -6.65207894       5.37317937      -0.80759200 </v>
  </varray>
  <energy>
   <i name="e_fr_energy">    -16.27277841 </i>
   <i name="e_wo_entrp">    -16.27079719 </i>
   <i name="e_0_energy">     -0.00594365 </i>
  </energy>
  <time name="totalsc">   21.82   43.63</time>
 </calculation>
 <calculation>
  <scstep>
   <time name="total">    1.66    3.31</time>
   <energy>
    <i name="alphaZ">    676.93577820 </i>
    <i name="ewald">  -9047.40029883 </i>
    <i name="hartreedc">  -3924.22850438 </i>
    <i name="XCdc">    337.82695222 </i>
    <i name="pawpsdc">  10503.54260647 </i>
    <i name="pawaedc"> -10942.87503394 </i>
    <i name="eentropy">     -0.00593531 </i>
    <i name="bandstr">   -900.27094493 </i>
    <i name="atom">  13280.20280305 </i>
    <i name="e_fr_energy">    -16.27258580 </i>
    <i name="e_wo_entrp">    -16.26665049 </i>
    <i name="e_0_energy">    -16.27060736 </i>
   </energy>
  </scstep>
  <scstep>
   <time name="total">    1.64    3.30</time>
   <energy>
    <i name="e_fr_energy">    -16.27277367 </i>
    <i name="e_wo_entrp">    -16.26683585 </i>
    <i name="e_0_energy">    -16.27079440 </i>
   </energy>
  </scstep>
  <scstep>
   <time name="total">    1.63    3.28</time>
   <energy>
    <i name="e_fr_energy">    -16.27278645 </i>
    <i name="e_wo_entrp">    -16.26684765 </i>
    <i name="e_0_energy">    -16.27080685 </i>
   </energy>
  </scstep>
  <scstep>
   <time name="total">    1.84    3.70</time>
   <energy>
    <i name="alphaZ">    676.93577820 </i>
    <i name="ewald">  -9047.40029883 </i>
    <i name="hartreedc">  -3923.08272692 </i>
    <i name="XCdc">    337.78273225 </i>
    <i name="pawpsdc">  10502.16350494 </i>
    <i name="pawaedc"> -10941.22315887 </i>
    <i name="eentropy">     -0.00593846 </i>
    <i name="bandstr">   -901.64548304 </i>
    <i name="atom">  13280.20280305 </i>
    <i name="e_fr_energy">    -16.27278802 </i>
    <i name="e_wo_entrp">    -16.26684957 </i>
    <i name="e_0_energy">    -16.27080854 </i>
   </energy>
  </scstep>
  <structure>
   <crystal>
    <varray name="basis" >
     <v>       3.55334516       0.00015299      -0.00060539 </v>
     <v>       0.00015299       3.55237373       0.00020030 </v>
     <v>      -0.00060539       0.00020030       3.55188761 </v>
    </varray>
    <i name="volume">     44.83480102 </i>
    <varray name="rec_basis" >
     <v>       0.28142496      -0.00001212       0.00004797 </v>
     <v>      -0.00001212       0.28150191      -0.00001588 </v>
     <v>       0.00004797      -0.00001588       0.28154045 </v>
    </varray>
   </crystal>
   <varray name="positions" >
    <v>       0.00583893       0.01160054       0.99020842 </v>
    <v>       0.51262572       0.49371004       0.00749090 </v>
    <v>       0.48743191       0.98794361       0.50631466 </v>
    <v>       0.01410345       0.50874582       0.49698602 </v>
   </varray>
  </structure>
  <varray name="forces" >
   <v>      -0.48404048      -0.66102079       0.78803164 </v>
   <v>      -0.17266437       0.54907002      -0.10498822 </v>
   <v>       1.08825592       0.32956342      -0.57537162 </v>
   <v>      -0.43155107      -0.21761265      -0.10767180 </v>
  </varray>
  <varray name="stress" >
   <v>       5.68722417       0.91575595      -6.63322852 </v>
   <v>       0.91575464       2.17298112       5.38622966 </v>
   <v>      -6.63322791       5.38623074       1.71486478 </v>
  </varray>
  <energy>
   <i name="e_fr_energy">    -16.27278802 </i>
   <i name="e_wo_entrp">    -16.27080854 </i>
   <i name="e_0_energy">     -0.00593846 </i>
  </energy>
  <time name="totalsc">   11.88   23.79</time>
 </calculation>
 <calculation>
  <scstep>
   <time name="total">    1.65    3.31</time>
   <energy>
    <i name="alphaZ">    678.54878493 </i>
    <i name="ewald">  -9058.12846939 </i>
    <i name="hartreedc">  -3910.61937100 </i>
    <i name="XCdc">    337.62395450 </i>
    <i name="pawpsdc">  10525.89421776 </i>
    <i name="pawaedc"> -10964.13683547 </i>
    <i name="eentropy">     -0.00529786 </i>
    <i name="bandstr">   -897.49627029 </i>
    <i name="atom">  13280.20280305 </i>
    <i name="e_fr_energy">     -8.11712436 </i>
    <i name="e_wo_entrp">     -8.11182650 </i>
    <i name="e_0_energy">     -8.11535840 </i>
   </energy>
  </scstep>
  <scstep>
   <time name="total">    1.65    3.29</time>
   <energy>
    <i name="e_fr_energy">    -12.47455542 </i>
    <i name="e_wo_entrp">    -12.46918024 </i>
    <i name="e_0_energy">    -12.47276369 </i>
   </energy>
  </scstep>
  <scstep>
   <time name="total">    1.65    3.31</time>
   <energy>
    <i name="e_fr_energy">    -15.20814289 </i>
    <i name="e_wo_entrp">    -15.20299025 </i>
    <i name="e_0_energy">    -15.20642534 </i>
   </energy>
  </scstep>
  <scstep>
   <time name="total">    1.64    3.29</time>
   <energy>
    <i name="e_fr_energy">    -15.96262735 </i>
    <i name="e_wo_entrp">    -15.95708578 </i>
    <i name="e_0_energy">    -15.96078016 </i>
   </energy>
  </scstep>
  <scstep>
   <time name="total">    1.65    3.30</time>
   <energy>
    <i name="e_fr_energy">    -16.17959482 </i>
    <i name="e_wo_entrp">    -16.17407832 </i>
    <i name="e_0_energy">    -16.17775599 </i>
   </energy>
  </scstep>
  <scstep>
   <time name="total">    1.64    3.29</time>
   <energy>
    <i name="e_fr_energy">    -16.26682428 </i>
    <i name="e_wo_entrp">    -16.26118474 </i>
    <i name="e_0_energy">    -16.26494443 </i>
   </energy>
  </scstep>
  <scstep>
   <time name="total">    1.65    3.30</time>
   <energy>
    <i name="e_fr_energy">    -16.31695653 </i>
    <i name="e_wo_entrp">    -16.31131453 </i>
    <i name="e_0_energy">    -16.31507586 </i>
   </energy>
  </scstep>
  <scstep>
   <time name="total">    1.64    3.29</time>
   <energy>
    <i name="e_fr_energy">    -16.33486954 </i>
    <i name="e_wo_entrp">    -16.32921838 </i>
    <i name="e_0_energy">    -16.33298582 </i>
   </energy>
  </scstep>
  <scstep>
   <time name="total">    1.65    3.30</time>
   <energy>
    <i name="e_fr_energy">    -16.34093237 </i>
    <i name="e_wo_entrp">    -16.33526347 </i>
    <i name="e_0_energy">    -16.33904274 </i>
   </energy>
  </scstep>
  <scstep>
   <time name="total">    1.64    3.24</time>
   <energy>
    <i name="e_fr_energy">    -16.34306197 </i>
    <i name="e_wo_entrp">    -16.33739558 </i>
    <i name="e_0_energy">    -16.34117317 </i>
   </energy>
  </scstep>
  <scstep>
   <time name="total">    1.64    3.29</time>
   <energy>
    <i name="e_fr_energy">    -16.34372328 </i>
    <i name="e_wo_entrp">    -16.33805297 </i>
    <i name="e_0_energy">    -16.34183318 </i>
   </energy>
  </scstep>
  <scstep>
   <time name="total">    1.64    3.29</time>
   <energy>
    <i name="e_fr_energy">    -16.34397055 </i>
    <i name="e_wo_entrp">    -16.33830599 </i>
    <i name="e_0_energy">    -16.34208236 </i>
   </energy>
  </scstep>
  <scstep>
   <time name="total">    1.65    3.30</time>
   <energy>
    <i name="e_fr_energy">    -16.34404919 </i>
    <i name="e_wo_entrp">    -16.33838944 </i>
    <i name="e_0_energy">    -16.34216261 </i>
   </energy>
  </scstep>
  <scstep>
   <time name="total">    1.64    3.29</time>
   <energy>
    <i name="e_fr_energy">    -16.34407658 </i>
    <i name="e_wo_entrp">    -16.33842246 </i>
    <i name="e_0_energy">    -16.34219187 </i>
   </energy>
  </scstep>
  <scstep>
   <time name="total">    1.65    3.25</time>
   <energy>
    <i name="e_fr_energy">    -16.34408707 </i>
    <i name="e_wo_entrp">    -16.33843934 </i>
    <i name="e_0_energy">    -16.34220449 </i>
   </energy>
  </scstep>
  <scstep>
   <time name="total">    1.85    3.77</time>
   <energy>
    <i name="alphaZ">    678.54878493 </i>
    <i name="ewald">  -9058.12846939 </i>
    <i name="hartreedc">  -3915.73262159 </i>
    <i name="XCdc">    337.79785223 </i>
    <i name="pawpsdc">  10501.23015995 </i>
    <i name="pawaedc"> -10940.37064060 </i>
    <i name="eentropy">     -0.00564244 </i>
    <i name="bandstr">   -899.88631177 </i>
    <i name="atom">  13280.20280305 </i>
    <i name="e_fr_energy">    -16.34409092 </i>
    <i name="e_wo_entrp">    -16.33844848 </i>
    <i name="e_0_energy">    -16.34221011 </i>
   </energy>
  </scstep>
  <structure>
   <crystal>
    <varray name="basis" >
     <v>       3.55303505       0.00106403      -0.00719375 </v>
     <v>       0.00106447       3.54855020       0.00553875 </v>
     <v>      -0.00719190       0.00553817       3.54759532 </v>
    </varray>
    <i name="volume">     44.72822234 </i>
    <varray name="rec_basis" >
     <v>       0.28145070      -0.00008532       0.00057071 </v>
     <v>      -0.00008528       0.28180594      -0.00044010 </v>
     <v>       0.00057085      -0.00044015       0.28188292 </v>
    </varray>
   </crystal>
   <varray name="positions" >
    <v>       0.00040314       0.00416692       0.99906914 </v>
    <v>       0.51068133       0.49988410       0.00630642 </v>
    <v>       0.49966477       0.99165296       0.49984634 </v>
    <v>       0.00925076       0.50629602       0.49577810 </v>
   </varray>
  </structure>
  <varray name="forces" >
   <v>       0.32784880      -0.00735777      -0.15193449 </v>
   <v>      -0.39094318       0.01058606      -0.23507380 </v>
   <v>       0.14827298       0.30173114       0.09329800 </v>
   <v>      -0.08517859      -0.30495944       0.29371030 </v>
  </varray>
  <varray name="stress" >
   <v>       7.84820094      -1.77341106      13.60479346 </v>
   <v>      -1.77340876      15.73164136      -9.19167594 </v>
   <v>      13.60479390      -9.19167521      15.33857906 </v>
  </varray>
  <energy>
   <i name="e_fr_energy">    -16.34409092 </i>
   <i name="e_wo_entrp">    -16.34221011 </i>
   <i name="e_0_energy">     -0.00564244 </i>
  </energy>
  <time name="totalsc">   31.60   63.28</time>
 </calculation>
 <calculation>
  <scstep>
   <time name="total">    1.66    3.34</time>
   <energy>
    <i name="alphaZ">    678.55932291 </i>
    <i name="ewald">  -9058.17524978 </i>
    <i name="hartreedc">  -3915.77271434 </i>
    <i name="XCdc">    337.80066901 </i>
    <i name="pawpsdc">  10501.32882442 </i>
    <i name="pawaedc"> -10940.48529158 </i>
    <i name="eentropy">     -0.00564081 </i>
    <i name="bandstr">   -899.79648212 </i>
    <i name="atom">  13280.20280305 </i>
    <i name="e_fr_energy">    -16.34376087 </i>
    <i name="e_wo_entrp">    -16.33812006 </i>
    <i name="e_0_energy">    -16.34188060 </i>
   </energy>
  </scstep>
  <scstep>
   <time name="total">    1.64    3.26</time>
   <energy>
    <i name="e_fr_energy">    -16.34394328 </i>
    <i name="e_wo_entrp">    -16.33830446 </i>
    <i name="e_0_energy">    -16.34206368 </i>
   </energy>
  </scstep>
  <scstep>
   <time name="total">    1.65    3.30</time>
   <energy>
    <i name="e_fr_energy">    -16.34406003 </i>
    <i name="e_wo_entrp">    -16.33842324 </i>
    <i name="e_0_energy">    -16.34218110 </i>
   </energy>
  </scstep>
  <scstep>
   <time name="total">    1.64    3.29</time>
   <energy>
    <i name="e_fr_energy">    -16.34409141 </i>
    <i name="e_wo_entrp">    -16.33845629 </i>
    <i name="e_0_energy">    -16.34221303 </i>
   </energy>
  </scstep>
  <scstep>
   <time name="total">    1.86    3.71</time>
   <energy>
    <i name="alphaZ">    678.55932291 </i>
    <i name="ewald">  -9058.17524978 </i>
    <i name="hartreedc">  -3915.72176138 </i>
    <i name="XCdc">    337.79869747 </i>
    <i name="pawpsdc">  10501.26645207 </i>
    <i name="pawaedc"> -10940.41082307 </i>
    <i name="eentropy">     -0.00563404 </i>
    <i name="bandstr">   -899.85790564 </i>
    <i name="atom">  13280.20280305 </i>
    <i name="e_fr_energy">    -16.34409950 </i>
    <i name="e_wo_entrp">    -16.33846546 </i>
    <i name="e_0_energy">    -16.34222149 </i>
   </energy>
  </scstep>
  <structure>
   <crystal>
    <varray name="basis" >
     <v>       3.55303303       0.00106996      -0.00723661 </v>
     <v>       0.00107040       3.54852532       0.00557348 </v>
     <v>      -0.00723475       0.00557290       3.54756740 </v>
    </varray>
    <i name="volume">     44.72752771 </i>
    <varray name="rec_basis" >
     <v>       0.28145087      -0.00008580       0.00057411 </v>
     <v>      -0.00008577       0.28180793      -0.00044287 </v>
     <v>       0.00057426      -0.00044291       0.28188517 </v>
    </varray>
   </crystal>
   <varray name="positions" >
    <v>       0.00036789       0.00411842       0.99912686 </v>
    <v>       0.51066865       0.49992433       0.00629862 </v>
    <v>       0.49974427       0.99167716       0.49980432 </v>
    <v>       0.00921918       0.50628009       0.49577020 </v>
   </varray>
  </structure>
  <varray name="forces" >
   <v>       0.33276286      -0.00687224      -0.15468773 </v>
   <v>      -0.39269630       0.00436875      -0.24137879 </v>
   <v>       0.13499089       0.30518344       0.09937922 </v>
   <v>      -0.07505745      -0.30267995       0.29668730 </v>
  </varray>
  <varray name="stress" >
   <v>       7.84331011      -1.76721755      13.62844229 </v>
   <v>      -1.76721812      15.76731425      -9.24028028 </v>
   <v>      13.62844280      -9.24028221      15.35497724 </v>
  </varray>
  <energy>
   <i name="e_fr_energy">    -16.34409950 </i>
   <i name="e_wo_entrp">    -16.34222149 </i>
   <i name="e_0_energy">     -0.00563404 </i>
  </energy>
  <time name="totalsc">   13.54   27.04</time>
 </calculation>
 <calculation>
  <scstep>
   <time name="total">    1.64    3.29</time>
   <energy>
    <i name="alphaZ">    671.63572895 </i>
    <i name="ewald">  -9028.91117328 </i>
    <i name="hartreedc">  -3890.97246919 </i>
    <i name="XCdc">    336.07573332 </i>
    <i name="pawpsdc">  10454.76678129 </i>
    <i name="pawaedc"> -10883.83638790 </i>
    <i name="eentropy">     -0.00617135 </i>
    <i name="bandstr">   -952.56882496 </i>
    <i name="atom">  13280.20280305 </i>
    <i name="e_fr_energy">    -13.61344276 </i>
    <i name="e_wo_entrp">    -13.60727141 </i>
    <i name="e_0_energy">    -13.61138564 </i>
   </energy>
  </scstep>
  <scstep>
   <time name="total">    1.63    3.28</time>
   <energy>
    <i name="e_fr_energy">    -15.10706627 </i>
    <i name="e_wo_entrp">    -15.10105890 </i>
    <i name="e_0_energy">    -15.10506382 </i>
   </energy>
  </scstep>
  <scstep>
   <time name="total">    1.63    3.23</time>
   <energy>
    <i name="e_fr_energy">    -15.98592140 </i>
    <i name="e_wo_entrp">    -15.97983489 </i>
    <i name="e_0_energy">    -15.98389256 </i>
   </energy>
  </scstep>
  <scstep>
   <time name="total">    1.63    3.29</time>
   <energy>
    <i name="e_fr_energy">    -16.25347906 </i>
    <i name="e_wo_entrp">    -16.24738432 </i>
    <i name="e_0_energy">    -16.25144748 </i>
   </energy>
  </scstep>
  <scstep>
   <time name="total">    1.63    3.28</time>
   <energy>
    <i name="e_fr_energy">    -16.31389977 </i>
    <i name="e_wo_entrp">    -16.30789572 </i>
    <i name="e_0_energy">    -16.31189842 </i>
   </energy>
  </scstep>
  <scstep>
   <time name="total">    1.64    3.24</time>
   <energy>
    <i name="e_fr_energy">    -16.33970746 </i>
    <i name="e_wo_entrp">    -16.33376370 </i>
    <i name="e_0_energy">    -16.33772621 </i>
   </energy>
  </scstep>
  <scstep>
   <time name="total">    1.63    3.28</time>
   <energy>
    <i name="e_fr_energy">    -16.34978873 </i>
    <i name="e_wo_entrp">    -16.34386348 </i>
    <i name="e_0_energy">    -16.34781365 </i>
   </energy>
  </scstep>
  <scstep>
   <time name="total">    1.64    3.29</time>
   <energy>
    <i name="e_fr_energy">    -16.35455663 </i>
    <i name="e_wo_entrp">    -16.34864637 </i>
    <i name="e_0_energy">    -16.35258655 </i>
   </energy>
  </scstep>
  <scstep>
   <time name="total">    1.63    3.28</time>
   <energy>
    <i name="e_fr_energy">    -16.35622142 </i>
    <i name="e_wo_entrp">    -16.35032125 </i>
    <i name="e_0_energy">    -16.35425470 </i>
   </energy>
  </scstep>
  <scstep>
   <time name="total">    1.64    3.24</time>
   <energy>
    <i name="e_fr_energy">    -16.35659240 </i>
    <i name="e_wo_entrp">    -16.35069643 </i>
    <i name="e_0_energy">    -16.35462708 </i>
   </energy>
  </scstep>
  <scstep>
   <time name="total">    1.63    3.28</time>
   <energy>
    <i name="e_fr_energy">    -16.35666382 </i>
    <i name="e_wo_entrp">    -16.35076795 </i>
    <i name="e_0_energy">    -16.35469853 </i>
   </energy>
  </scstep>
  <scstep>
   <time name="total">    1.64    3.29</time>
   <energy>
    <i name="e_fr_energy">    -16.35668809 </i>
    <i name="e_wo_entrp">    -16.35079439 </i>
    <i name="e_0_energy">    -16.35472352 </i>
   </energy>
  </scstep>
  <scstep>
   <time name="total">    1.64    3.24</time>
   <energy>
    <i name="e_fr_energy">    -16.35669878 </i>
    <i name="e_wo_entrp">    -16.35080895 </i>
    <i name="e_0_energy">    -16.35473550 </i>
   </energy>
  </scstep>
  <scstep>
   <time name="total">    1.85    3.70</time>
   <energy>
    <i name="alphaZ">    671.63572895 </i>
    <i name="ewald">  -9028.91117328 </i>
    <i name="hartreedc">  -3931.77061673 </i>
    <i name="XCdc">    337.64013209 </i>
    <i name="pawpsdc">  10493.88338268 </i>
    <i name="pawaedc"> -10932.37372638 </i>
    <i name="eentropy">     -0.00588874 </i>
    <i name="bandstr">   -906.65734290 </i>
    <i name="atom">  13280.20280305 </i>
    <i name="e_fr_energy">    -16.35670235 </i>
    <i name="e_wo_entrp">    -16.35081361 </i>
    <i name="e_0_energy">    -16.35473944 </i>
   </energy>
  </scstep>
  <structure>
   <crystal>
    <varray name="basis" >
     <v>       3.56069265      -0.00044380       0.00466812 </v>
     <v>      -0.00044087       3.56319256      -0.00227908 </v>
     <v>       0.00466483      -0.00227719       3.56168963 </v>
    </varray>
    <i name="volume">     45.18860390 </i>
    <varray name="rec_basis" >
     <v>       0.28084472       0.00003451      -0.00036781 </v>
     <v>       0.00003474       0.28064731       0.00017939 </v>
     <v>      -0.00036807       0.00017954       0.28076622 </v>
    </varray>
   </crystal>
   <varray name="positions" >
    <v>       0.00283108       0.00229724       0.99947329 </v>
    <v>       0.50579858       0.50142701       0.00329497 </v>
    <v>       0.50412279       0.99597632       0.49940675 </v>
    <v>       0.00724755       0.50229943       0.49882499 </v>
   </varray>
  </structure>
  <varray name="forces" >
   <v>       0.13659415      -0.00531946      -0.04372919 </v>
   <v>      -0.08338636      -0.05420243      -0.11807840 </v>
   <v>       0.00213207       0.16217549       0.06572939 </v>
   <v>      -0.05533986      -0.10265360       0.09607821 </v>
  </varray>
  <varray name="stress" >
   <v>     -52.63720246       0.97525915      -8.98700147 </v>
   <v>       0.97525691     -54.42957160       4.49596394 </v>
   <v>      -8.98700238       4.49596571     -52.04355643 </v>
  </varray>
  <energy>
   <i name="e_fr_energy">    -16.35670235 </i>
   <i name="e_wo_entrp">    -16.35473944 </i>
   <i name="e_0_energy">     -0.00588874 </i>
  </energy>
  <time name="totalsc">   28.16   56.37</time>
 </calculation>
 <calculation>
  <scstep>
   <time name="total">    1.64    3.30</time>
   <energy>
    <i name="alphaZ">    673.07475987 </i>
    <i name="ewald">  -9035.12629528 </i>
    <i name="hartreedc">  -3935.57773447 </i>
    <i name="XCdc">    337.95538837 </i>
    <i name="pawpsdc">  10504.93171238 </i>
    <i name="pawaedc"> -10945.27557865 </i>
    <i name="eentropy">     -0.00580771 </i>
    <i name="bandstr">   -896.42047206 </i>
    <i name="atom">  13280.20280305 </i>
    <i name="e_fr_energy">    -16.24130552 </i>
    <i name="e_wo_entrp">    -16.23549781 </i>
    <i name="e_0_energy">    -16.23936962 </i>
   </energy>
  </scstep>
  <scstep>
   <time name="total">    1.64    3.30</time>
   <energy>
    <i name="e_fr_energy">    -16.30399401 </i>
    <i name="e_wo_entrp">    -16.29811347 </i>
    <i name="e_0_energy">    -16.30203383 </i>
   </energy>
  </scstep>
  <scstep>
   <time name="total">    1.63    3.24</time>
   <energy>
    <i name="e_fr_energy">    -16.34201319 </i>
    <i name="e_wo_entrp">    -16.33614783 </i>
    <i name="e_0_energy">    -16.34005807 </i>
   </energy>
  </scstep>
  <scstep>
   <time name="total">    1.64    3.29</time>
   <energy>
    <i name="e_fr_energy">    -16.35327381 </i>
    <i name="e_wo_entrp">    -16.34740970 </i>
    <i name="e_0_energy">    -16.35131911 </i>
   </energy>
  </scstep>
  <scstep>
   <time name="total">    1.64    3.29</time>
   <energy>
    <i name="e_fr_energy">    -16.35586351 </i>
    <i name="e_wo_entrp">    -16.34999021 </i>
    <i name="e_0_energy">    -16.35390574 </i>
   </energy>
  </scstep>
  <scstep>
   <time name="total">    1.64    3.29</time>
   <energy>
    <i name="e_fr_energy">    -16.35699531 </i>
    <i name="e_wo_entrp">    -16.35111396 </i>
[...]
       <r>  -61.4546    1.0000 </r>
       <r>    1.0549    1.0000 </r>
       <r>    1.5274    1.0000 </r>
       <r>    2.2723    1.0000 </r>
       <r>    2.3898    1.0000 </r>
       <r>    2.9327    1.0000 </r>
       <r>    3.2327    1.0000 </r>
       <r>    3.6432    1.0000 </r>
       <r>    4.2599    1.0000 </r>
       <r>    4.5516    1.0000 </r>
       <r>    4.6036    1.0000 </r>
       <r>    4.7714    1.0000 </r>
       <r>    4.9412    1.0000 </r>
       <r>    5.0380    1.0000 </r>
       <r>    5.5919    1.0000 </r>
       <r>    5.7127    1.0000 </r>
       <r>    5.7656    1.0000 </r>
       <r>    5.9544    1.0000 </r>
       <r>    6.2452    1.0000 </r>
       <r>    6.2817    1.0000 </r>
       <r>    6.4053    1.0000 </r>
       <r>    7.3238    1.0000 </r>
       <r>    8.2319    1.0012 </r>
       <r>    8.7942    0.2465 </r>
       <r>   10.2708   -0.0000 </r>
       <r>   16.1926    0.0000 </r>
       <r>   17.9698    0.0000 </r>
       <r>   18.2890    0.0000 </r>
       <r>   19.4707    0.0000 </r>
      </set>
      <set comment="kpoint 107">
       <r>  -61.5198    1.0000 </r>
       <r>  -61.5096    1.0000 </r>
       <r>  -61.4996    1.0000 </r>
       <r>  -61.4938    1.0000 </r>
       <r>  -61.4878    1.0000 </r>
       <r>  -61.4823    1.0000 </r>
       <r>  -61.4748    1.0000 </r>
       <r>  -61.4613    1.0000 </r>
       <r>  -61.4564    1.0000 </r>
       <r>    0.3783    1.0000 </r>
       <r>    1.4651    1.0000 </r>
       <r>    2.0530    1.0000 </r>
       <r>    2.3171    1.0000 </r>
       <r>    2.4957    1.0000 </r>
       <r>    2.9243    1.0000 </r>
       <r>    3.6538    1.0000 </r>
       <r>    4.3338    1.0000 </r>
       <r>    4.5273    1.0000 </r>
       <r>    4.5985    1.0000 </r>
       <r>    4.8182    1.0000 </r>
       <r>    5.0725    1.0000 </r>
       <r>    5.4383    1.0000 </r>
       <r>    5.6755    1.0000 </r>
       <r>    5.8735    1.0000 </r>
       <r>    5.9817    1.0000 </r>
       <r>    5.9919    1.0000 </r>
       <r>    6.3892    1.0000 </r>
       <r>    6.6511    1.0000 </r>
       <r>    6.6671    1.0000 </r>
       <r>    6.7015    1.0000 </r>
       <r>    7.3676    1.0000 </r>
       <r>   10.6810   -0.0000 </r>
       <r>   12.5390   -0.0000 </r>
       <r>   14.6917    0.0000 </r>
       <r>   16.6394    0.0000 </r>
       <r>   18.8624    0.0000 </r>
       <r>   20.2071    0.0000 </r>
      </set>
      <set comment="kpoint 108">
       <r>  -61.5115    1.0000 </r>
       <r>  -61.5026    1.0000 </r>
       <r>  -61.5006    1.0000 </r>
       <r>  -61.4985    1.0000 </r>
       <r>  -61.4883    1.0000 </r>
       <r>  -61.4879    1.0000 </r>
       <r>  -61.4783    1.0000 </r>
       <r>  -61.4689    1.0000 </r>
       <r>  -61.4675    1.0000 </r>
       <r>   -0.2253    1.0000 </r>
       <r>    1.4464    1.0000 </r>
       <r>    1.6554    1.0000 </r>
       <r>    2.3689    1.0000 </r>
       <r>    2.4163    1.0000 </r>
       <r>    2.6427    1.0000 </r>
       <r>    3.7066    1.0000 </r>
       <r>    4.3952    1.0000 </r>
       <r>    4.5302    1.0000 </r>
       <r>    4.7619    1.0000 </r>
       <r>    4.7747    1.0000 </r>
       <r>    5.3534    1.0000 </r>
       <r>    5.5230    1.0000 </r>
       <r>    5.7943    1.0000 </r>
       <r>    5.9648    1.0000 </r>
       <r>    6.0354    1.0000 </r>
       <r>    6.0774    1.0000 </r>
       <r>    6.3613    1.0000 </r>
       <r>    6.4225    1.0000 </r>
       <r>    6.6117    1.0000 </r>
       <r>    6.8761    1.0000 </r>
       <r>    7.0770    1.0000 </r>
       <r>   13.4510   -0.0000 </r>
       <r>   13.6381   -0.0000 </r>
       <r>   15.5669    0.0000 </r>
       <r>   15.8733    0.0000 </r>
       <r>   18.3531    0.0000 </r>
       <r>   18.3886    0.0000 </r>
      </set>
     </set>
    </set>
   </array>
  </eigenvalues>
  <separator name="orbital magnetization" >
   <v name="MAGDIPOLOUT">      0.00000000      0.00000000      0.00000000</v>
  </separator>
  <dos>
   <i name="efermi">      8.73078317 </i>
   <total>
    <array>
     <dimension dim="1">gridpoints</dimension>
     <dimension dim="2">spin</dimension>
     <field>energy</field>
     <field>total</field>
     <field>integrated</field>
     <set>
      <set comment="spin 1">
       <r>   -65.7224     0.0000     0.0000 </r>
       <r>   -65.4164     0.0000     0.0000 </r>
       <r>   -65.1103     0.0000     0.0000 </r>
       <r>   -64.8043     0.0000     0.0000 </r>
       <r>   -64.4983     0.0000     0.0000 </r>
       <r>   -64.1922     0.0000     0.0000 </r>
       <r>   -63.8862     0.0000     0.0000 </r>
       <r>   -63.5801     0.0000     0.0000 </r>
       <r>   -63.2741    -0.0000    -0.0000 </r>
       <r>   -62.9681    -0.0000    -0.0000 </r>
       <r>   -62.6620    -0.0000    -0.0000 </r>
       <r>   -62.3560    -0.0000    -0.0000 </r>
       <r>   -62.0500    -0.0185    -0.0057 </r>
       <r>   -61.7439    -1.9469    -0.6015 </r>
       <r>   -61.4379    43.4708    12.7022 </r>
       <r>   -61.1318    18.2093    18.2750 </r>
       <r>   -60.8258    -0.8974    18.0003 </r>
       <r>   -60.5198    -0.0010    18.0000 </r>
       <r>   -60.2137    -0.0000    18.0000 </r>
       <r>   -59.9077     0.0000    18.0000 </r>
       <r>   -59.6016     0.0000    18.0000 </r>
       <r>   -59.2956     0.0000    18.0000 </r>
       <r>   -58.9896     0.0000    18.0000 </r>
       <r>   -58.6835     0.0000    18.0000 </r>
       <r>   -58.3775     0.0000    18.0000 </r>
       <r>   -58.0715     0.0000    18.0000 </r>
       <r>   -57.7654     0.0000    18.0000 </r>
       <r>   -57.4594     0.0000    18.0000 </r>
       <r>   -57.1533     0.0000    18.0000 </r>
       <r>   -56.8473     0.0000    18.0000 </r>
       <r>   -56.5413     0.0000    18.0000 </r>
       <r>   -56.2352     0.0000    18.0000 </r>
       <r>   -55.9292     0.0000    18.0000 </r>
       <r>   -55.6232     0.0000    18.0000 </r>
       <r>   -55.3171     0.0000    18.0000 </r>
       <r>   -55.0111     0.0000    18.0000 </r>
       <r>   -54.7050     0.0000    18.0000 </r>
       <r>   -54.3990     0.0000    18.0000 </r>
       <r>   -54.0930     0.0000    18.0000 </r>
       <r>   -53.7869     0.0000    18.0000 </r>
       <r>   -53.4809     0.0000    18.0000 </r>
       <r>   -53.1749     0.0000    18.0000 </r>
       <r>   -52.8688     0.0000    18.0000 </r>
       <r>   -52.5628     0.0000    18.0000 </r>
       <r>   -52.2567     0.0000    18.0000 </r>
       <r>   -51.9507     0.0000    18.0000 </r>
       <r>   -51.6447     0.0000    18.0000 </r>
       <r>   -51.3386     0.0000    18.0000 </r>
       <r>   -51.0326     0.0000    18.0000 </r>
       <r>   -50.7266     0.0000    18.0000 </r>
       <r>   -50.4205     0.0000    18.0000 </r>
       <r>   -50.1145     0.0000    18.0000 </r>
       <r>   -49.8084     0.0000    18.0000 </r>
       <r>   -49.5024     0.0000    18.0000 </r>
       <r>   -49.1964     0.0000    18.0000 </r>
       <r>   -48.8903     0.0000    18.0000 </r>
       <r>   -48.5843     0.0000    18.0000 </r>
       <r>   -48.2783     0.0000    18.0000 </r>
       <r>   -47.9722     0.0000    18.0000 </r>
       <r>   -47.6662     0.0000    18.0000 </r>
       <r>   -47.3601     0.0000    18.0000 </r>
       <r>   -47.0541     0.0000    18.0000 </r>
       <r>   -46.7481     0.0000    18.0000 </r>
       <r>   -46.4420     0.0000    18.0000 </r>
       <r>   -46.1360     0.0000    18.0000 </r>
       <r>   -45.8300     0.0000    18.0000 </r>
       <r>   -45.5239     0.0000    18.0000 </r>
       <r>   -45.2179     0.0000    18.0000 </r>
       <r>   -44.9118     0.0000    18.0000 </r>
       <r>   -44.6058     0.0000    18.0000 </r>
       <r>   -44.2998     0.0000    18.0000 </r>
       <r>   -43.9937     0.0000    18.0000 </r>
       <r>   -43.6877     0.0000    18.0000 </r>
       <r>   -43.3816     0.0000    18.0000 </r>
       <r>   -43.0756     0.0000    18.0000 </r>
       <r>   -42.7696     0.0000    18.0000 </r>
       <r>   -42.4635     0.0000    18.0000 </r>
       <r>   -42.1575     0.0000    18.0000 </r>
       <r>   -41.8515     0.0000    18.0000 </r>
       <r>   -41.5454     0.0000    18.0000 </r>
       <r>   -41.2394     0.0000    18.0000 </r>
       <r>   -40.9333     0.0000    18.0000 </r>
       <r>   -40.6273     0.0000    18.0000 </r>
       <r>   -40.3213     0.0000    18.0000 </r>
       <r>   -40.0152     0.0000    18.0000 </r>
       <r>   -39.7092     0.0000    18.0000 </r>
       <r>   -39.4032     0.0000    18.0000 </r>
       <r>   -39.0971     0.0000    18.0000 </r>
       <r>   -38.7911     0.0000    18.0000 </r>
       <r>   -38.4850     0.0000    18.0000 </r>
       <r>   -38.1790     0.0000    18.0000 </r>
       <r>   -37.8730     0.0000    18.0000 </r>
       <r>   -37.5669     0.0000    18.0000 </r>
       <r>   -37.2609     0.0000    18.0000 </r>
       <r>   -36.9549     0.0000    18.0000 </r>
       <r>   -36.6488     0.0000    18.0000 </r>
       <r>   -36.3428     0.0000    18.0000 </r>
       <r>   -36.0367     0.0000    18.0000 </r>
       <r>   -35.7307     0.0000    18.0000 </r>
       <r>   -35.4247     0.0000    18.0000 </r>
       <r>   -35.1186     0.0000    18.0000 </r>
       <r>   -34.8126     0.0000    18.0000 </r>
       <r>   -34.5066     0.0000    18.0000 </r>
       <r>   -34.2005     0.0000    18.0000 </r>
       <r>   -33.8945     0.0000    18.0000 </r>
       <r>   -33.5884     0.0000    18.0000 </r>
       <r>   -33.2824     0.0000    18.0000 </r>
       <r>   -32.9764     0.0000    18.0000 </r>
       <r>   -32.6703     0.0000    18.0000 </r>
       <r>   -32.3643     0.0000    18.0000 </r>
       <r>   -32.0583     0.0000    18.0000 </r>
       <r>   -31.7522     0.0000    18.0000 </r>
       <r>   -31.4462     0.0000    18.0000 </r>
       <r>   -31.1401     0.0000    18.0000 </r>
       <r>   -30.8341     0.0000    18.0000 </r>
       <r>   -30.5281     0.0000    18.0000 </r>
       <r>   -30.2220     0.0000    18.0000 </r>
       <r>   -29.9160     0.0000    18.0000 </r>
       <r>   -29.6100     0.0000    18.0000 </r>
       <r>   -29.3039     0.0000    18.0000 </r>
       <r>   -28.9979     0.0000    18.0000 </r>
       <r>   -28.6918     0.0000    18.0000 </r>
       <r>   -28.3858     0.0000    18.0000 </r>
       <r>   -28.0798     0.0000    18.0000 </r>
       <r>   -27.7737     0.0000    18.0000 </r>
       <r>   -27.4677     0.0000    18.0000 </r>
       <r>   -27.1617     0.0000    18.0000 </r>
       <r>   -26.8556     0.0000    18.0000 </r>
       <r>   -26.5496     0.0000    18.0000 </r>
       <r>   -26.2435     0.0000    18.0000 </r>
       <r>   -25.9375     0.0000    18.0000 </r>
       <r>   -25.6315     0.0000    18.0000 </r>
       <r>   -25.3254     0.0000    18.0000 </r>
       <r>   -25.0194     0.0000    18.0000 </r>
       <r>   -24.7133     0.0000    18.0000 </r>
       <r>   -24.4073     0.0000    18.0000 </r>
       <r>   -24.1013     0.0000    18.0000 </r>
       <r>   -23.7952     0.0000    18.0000 </r>
       <r>   -23.4892     0.0000    18.0000 </r>
       <r>   -23.1832     0.0000    18.0000 </r>
       <r>   -22.8771     0.0000    18.0000 </r>
       <r>   -22.5711     0.0000    18.0000 </r>
       <r>   -22.2650     0.0000    18.0000 </r>
       <r>   -21.9590     0.0000    18.0000 </r>
       <r>   -21.6530     0.0000    18.0000 </r>
       <r>   -21.3469     0.0000    18.0000 </r>
       <r>   -21.0409     0.0000    18.0000 </r>
       <r>   -20.7349     0.0000    18.0000 </r>
       <r>   -20.4288     0.0000    18.0000 </r>
       <r>   -20.1228     0.0000    18.0000 </r>
       <r>   -19.8167     0.0000    18.0000 </r>
       <r>   -19.5107     0.0000    18.0000 </r>
       <r>   -19.2047     0.0000    18.0000 </r>
       <r>   -18.8986     0.0000    18.0000 </r>
       <r>   -18.5926     0.0000    18.0000 </r>
       <r>   -18.2866     0.0000    18.0000 </r>
       <r>   -17.9805     0.0000    18.0000 </r>
       <r>   -17.6745     0.0000    18.0000 </r>
       <r>   -17.3684     0.0000    18.0000 </r>
       <r>   -17.0624     0.0000    18.0000 </r>
       <r>   -16.7564     0.0000    18.0000 </r>
       <r>   -16.4503     0.0000    18.0000 </r>
       <r>   -16.1443     0.0000    18.0000 </r>
       <r>   -15.8383     0.0000    18.0000 </r>
       <r>   -15.5322     0.0000    18.0000 </r>
       <r>   -15.2262     0.0000    18.0000 </r>
       <r>   -14.9201     0.0000    18.0000 </r>
       <r>   -14.6141     0.0000    18.0000 </r>
       <r>   -14.3081     0.0000    18.0000 </r>
       <r>   -14.0020     0.0000    18.0000 </r>
       <r>   -13.6960     0.0000    18.0000 </r>
       <r>   -13.3900     0.0000    18.0000 </r>
       <r>   -13.0839     0.0000    18.0000 </r>
       <r>   -12.7779     0.0000    18.0000 </r>
       <r>   -12.4718     0.0000    18.0000 </r>
       <r>   -12.1658     0.0000    18.0000 </r>
       <r>   -11.8598     0.0000    18.0000 </r>
       <r>   -11.5537     0.0000    18.0000 </r>
       <r>   -11.2477     0.0000    18.0000 </r>
       <r>   -10.9417     0.0000    18.0000 </r>
       <r>   -10.6356     0.0000    18.0000 </r>
       <r>   -10.3296     0.0000    18.0000 </r>
       <r>   -10.0235     0.0000    18.0000 </r>
       <r>    -9.7175     0.0000    18.0000 </r>
       <r>    -9.4115     0.0000    18.0000 </r>
       <r>    -9.1054     0.0000    18.0000 </r>
       <r>    -8.7994     0.0000    18.0000 </r>
       <r>    -8.4934     0.0000    18.0000 </r>
       <r>    -8.1873     0.0000    18.0000 </r>
       <r>    -7.8813     0.0000    18.0000 </r>
       <r>    -7.5752     0.0000    18.0000 </r>
       <r>    -7.2692     0.0000    18.0000 </r>
       <r>    -6.9632     0.0000    18.0000 </r>
       <r>    -6.6571     0.0000    18.0000 </r>
       <r>    -6.3511     0.0000    18.0000 </r>
       <r>    -6.0450     0.0000    18.0000 </r>
       <r>    -5.7390     0.0000    18.0000 </r>
       <r>    -5.4330     0.0000    18.0000 </r>
       <r>    -5.1269     0.0000    18.0000 </r>
       <r>    -4.8209     0.0000    18.0000 </r>
       <r>    -4.5149     0.0000    18.0000 </r>
       <r>    -4.2088     0.0000    18.0000 </r>
       <r>    -3.9028    -0.0000    18.0000 </r>
       <r>    -3.5967    -0.0000    18.0000 </r>
       <r>    -3.2907    -0.0000    18.0000 </r>
       <r>    -2.9847    -0.0000    18.0000 </r>
       <r>    -2.6786    -0.0001    18.0000 </r>
       <r>    -2.3726    -0.0084    17.9974 </r>
       <r>    -2.0666     0.1764    18.0514 </r>
       <r>    -1.7605     0.0684    18.0723 </r>
       <r>    -1.4545     0.1894    18.1303 </r>
       <r>    -1.1484     0.5647    18.3031 </r>
       <r>    -0.8424     0.0294    18.3121 </r>
       <r>    -0.5364     0.6634    18.5151 </r>
       <r>    -0.2303     0.4027    18.6384 </r>
       <r>     0.0757     0.5654    18.8114 </r>
       <r>     0.3817     0.7452    19.0395 </r>
       <r>     0.6878     0.9437    19.3283 </r>
       <r>     0.9938     1.1240    19.6723 </r>
       <r>     1.2999     2.4556    20.4238 </r>
       <r>     1.6059     6.6347    22.4542 </r>
       <r>     1.9119     2.9264    23.3498 </r>
       <r>     2.2180     3.9118    24.5470 </r>
       <r>     2.5240     9.8334    27.5564 </r>
       <r>     2.8300     2.8061    28.4151 </r>
       <r>     3.1361     2.7075    29.2437 </r>
       <r>     3.4421     2.9347    30.1418 </r>
       <r>     3.7482     4.3977    31.4877 </r>
       <r>     4.0542     0.6183    31.6769 </r>
       <r>     4.3602     2.5551    32.4589 </r>
       <r>     4.6663     8.6530    35.1070 </r>
       <r>     4.9723     9.9159    38.1417 </r>
       <r>     5.2783    11.9602    41.8019 </r>
       <r>     5.5844     8.7907    44.4922 </r>
       <r>     5.8904     9.4721    47.3910 </r>
       <r>     6.1965     9.8778    50.4140 </r>
       <r>     6.5025    10.0374    53.4859 </r>
       <r>     6.8085    12.9795    57.4581 </r>
       <r>     7.1146     7.4821    59.7479 </r>
       <r>     7.4206     2.5744    60.5358 </r>
       <r>     7.7266     1.4079    60.9666 </r>
       <r>     8.0327     0.4652    61.1090 </r>
       <r>     8.3387     1.9640    61.7100 </r>
       <r>     8.6448     0.5474    61.8776 </r>
       <r>     8.9508     1.5077    62.3390 </r>
       <r>     9.2568     0.6987    62.5528 </r>
       <r>     9.5629     0.3414    62.6573 </r>
       <r>     9.8689     1.0210    62.9697 </r>
       <r>    10.1750     1.3464    63.3818 </r>
       <r>    10.4810     0.5349    63.5455 </r>
       <r>    10.7870     1.6713    64.0570 </r>
       <r>    11.0931     1.2050    64.4257 </r>
       <r>    11.3991     0.1562    64.4736 </r>
       <r>    11.7051     1.3047    64.8729 </r>
       <r>    12.0112     0.0564    64.8901 </r>
       <r>    12.3172    -0.0649    64.8703 </r>
       <r>    12.6233     1.4940    65.3275 </r>
       <r>    12.9293     1.0222    65.6403 </r>
       <r>    13.2353    -0.0773    65.6167 </r>
       <r>    13.5414     1.0139    65.9269 </r>
       <r>    13.8474     1.9337    66.5187 </r>
       <r>    14.1534     0.3464    66.6247 </r>
       <r>    14.4595     0.6560    66.8255 </r>
       <r>    14.7655     1.3156    67.2281 </r>
       <r>    15.0716     1.0495    67.5493 </r>
       <r>    15.3776     1.0019    67.8559 </r>
       <r>    15.6836     1.2307    68.2325 </r>
       <r>    15.9897     1.1022    68.5699 </r>
       <r>    16.2957     0.9527    68.8614 </r>
       <r>    16.6017     0.8544    69.1229 </r>
       <r>    16.9078     1.2023    69.4908 </r>
       <r>    17.2138     0.1604    69.5399 </r>
       <r>    17.5199     1.0963    69.8755 </r>
       <r>    17.8259     1.6484    70.3799 </r>
       <r>    18.1319     1.5641    70.8586 </r>
       <r>    18.4380     2.9124    71.7499 </r>
       <r>    18.7440     0.7853    71.9903 </r>
       <r>    19.0500     2.8527    72.8633 </r>
       <r>    19.3561     0.3910    72.9830 </r>
       <r>    19.6621     1.0977    73.3189 </r>
       <r>    19.9682     0.2561    73.3973 </r>
       <r>    20.2742     1.3751    73.8181 </r>
       <r>    20.5802     0.3710    73.9316 </r>
       <r>    20.8863    -0.0186    73.9259 </r>
       <r>    21.1923    -0.0000    73.9259 </r>
       <r>    21.4983    -0.0016    73.9254 </r>
       <r>    21.8044     0.0286    73.9342 </r>
       <r>    22.1104     0.2210    74.0018 </r>
       <r>    22.4165    -0.0057    74.0001 </r>
       <r>    22.7225    -0.0003    74.0000 </r>
       <r>    23.0285    -0.0000    74.0000 </r>
       <r>    23.3346    -0.0000    74.0000 </r>
       <r>    23.6406     0.0000    74.0000 </r>
       <r>    23.9466     0.0000    74.0000 </r>
       <r>    24.2527     0.0000    74.0000 </r>
       <r>    24.5587     0.0000    74.0000 </r>
       <r>    24.8648     0.0000    74.0000 </r>
       <r>    25.1708     0.0000    74.0000 </r>
       <r>    25.4768     0.0000    74.0000 </r>
       <r>    25.7829     0.0000    74.0000 </r>
       <r>    26.0889     0.0000    74.0000 </r>
      </set>
     </set>
    </array>
   </total>
  </dos>
 </calculation>
 <structure name="finalpos" >
  <crystal>
   <varray name="basis" >
    <v>       3.55167155       0.00006048      -0.00020512 </v>
    <v>       0.00006471       3.55234437       0.00021069 </v>
    <v>      -0.00021447       0.00021311       3.55252116 </v>
   </varray>
   <i name="volume">     44.82130822 </i>
   <varray name="rec_basis" >
    <v>       0.28155757      -0.00000513       0.00001700 </v>
    <v>      -0.00000479       0.28150424      -0.00001689 </v>
    <v>       0.00001626      -0.00001670       0.28149023 </v>
   </varray>
  </crystal>
  <varray name="positions" >
   <v>       0.00484632       0.00068564       0.00013434 </v>
   <v>       0.50460004       0.50087130       0.00057828 </v>
   <v>       0.50529039       0.00005106       0.50000404 </v>
   <v>       0.00526325       0.50039200       0.50028333 </v>
  </varray>
 </structure>
</modeling>
