unknown system                          
           1
     3.724000    0.000000    0.000000
     0.000000    3.724000    0.000000
     0.000000    0.000000    3.724000
   Au   Cu
   1   3
Direct configuration=     1
   0.00500000  0.01000000  0.99200000
   0.51200000  0.49500000  0.00700000
   0.49000000  0.98900000  0.50500000
   0.01300000  0.50800000  0.49700000
unknown system                          
           1
     2.394822    0.001192   -0.004715
     0.001192    2.387256    0.001560
    -0.004715    0.001560    2.383470
   Au   Cu
   1   3
Direct configuration=     2
   0.00265114  0.00566340  0.99684040
   0.51029771  0.49849477  0.00569665
   0.49708631  0.99187166  0.50140782
   0.00996484  0.50597017  0.49705512
unknown system                          
           1
     3.575907    0.000133   -0.000525
     0.000133    3.575064    0.000174
    -0.000525    0.000174    3.574642
   Au   Cu
   1   3
Direct configuration=     3
   0.00588050  0.01167733  0.99012270
   0.51265586  0.49364815  0.00751399
   0.48730646  0.98789276  0.50637827
   0.01415718  0.50878176  0.49698505
unknown system                          
           1
     3.567660    0.000140   -0.000555
     0.000140    3.566770    0.000183
    -0.000555    0.000183    3.566325
   Au   Cu
   1   3
Direct configuration=     4
   0.00586532  0.01164931  0.99015399
   0.51264486  0.49367074  0.00750556
   0.48735224  0.98791132  0.50635505
   0.01413757  0.50876864  0.49698540
unknown system                          
           1
     3.553740    0.000153   -0.000604
     0.000153    3.552770    0.000200
    -0.000604    0.000200    3.552285
   Au   Cu
   1   3
Direct configuration=     5
   0.00583966  0.01160189  0.99020692
   0.51262625  0.49370895  0.00749130
   0.48742970  0.98794272  0.50631578
   0.01410439  0.50874645  0.49698600
unknown system                          
           1
     3.553345    0.000153   -0.000605
     0.000153    3.552374    0.000200
    -0.000605    0.000200    3.551888
   Au   Cu
   1   3
Direct configuration=     6
   0.00583893  0.01160054  0.99020842
   0.51262572  0.49371004  0.00749090
   0.48743191  0.98794361  0.50631466
   0.01410345  0.50874582  0.49698602
unknown system                          
           1
     3.553035    0.001064   -0.007194
     0.001064    3.548550    0.005539
    -0.007192    0.005538    3.547595
   Au   Cu
   1   3
Direct configuration=     7
   0.00040314  0.00416692  0.99906914
   0.51068133  0.49988410  0.00630642
   0.49966477  0.99165296  0.49984634
   0.00925076  0.50629602  0.49577810
unknown system                          
           1
     3.553033    0.001070   -0.007237
     0.001070    3.548525    0.005573
    -0.007235    0.005573    3.547567
   Au   Cu
   1   3
Direct configuration=     8
   0.00036789  0.00411842  0.99912686
   0.51066865  0.49992433  0.00629862
   0.49974427  0.99167716  0.49980432
   0.00921918  0.50628009  0.49577020
unknown system                          
           1
     3.560693   -0.000444    0.004668
    -0.000441    3.563193   -0.002279
     0.004665   -0.002277    3.561690
   Au   Cu
   1   3
Direct configuration=     9
   0.00283108  0.00229724  0.99947329
   0.50579858  0.50142701  0.00329497
   0.50412279  0.99597632  0.49940675
   0.00724755  0.50229943  0.49882499
unknown system                          
           1
     3.559090   -0.000127    0.002177
    -0.000125    3.560123   -0.000636
     0.002175   -0.000635    3.558734
   Au   Cu
   1   3
Direct configuration=    10
   0.00231716  0.00267639  0.99940365
   0.50681325  0.50111567  0.00391692
   0.50320788  0.99508020  0.49949069
   0.00766172  0.50312774  0.49818875
unknown system                          
           1
     3.548030   -0.000702    0.006159
    -0.000699    3.552379   -0.003716
     0.006154   -0.003714    3.551488
   Au   Cu
   1   3
Direct configuration=    11
   0.00413347  0.00183076  0.99929586
   0.50398449  0.50162142  0.00195791
   0.50537189  0.99784066  0.49959945
   0.00651014  0.50070715  0.50014678
unknown system                          
           1
     3.548990   -0.000652    0.005814
    -0.000649    3.553052   -0.003449
     0.005809   -0.003447    3.552117
   Au   Cu
   1   3
Direct configuration=    12
   0.00397526  0.00190434  0.99930548
   0.50423069  0.50157759  0.00212805
   0.50518337  0.99760040  0.49958999
   0.00661068  0.50091767  0.49997647
unknown system                          
           1
     3.549770   -0.000268    0.002305
    -0.000264    3.552734   -0.001432
     0.002298   -0.001430    3.552416
   Au   Cu
   1   3
Direct configuration=    13
   0.00427044  0.00170881  0.99938981
   0.50408532  0.50144908  0.00170944
   0.50533982  0.99823055  0.49970150
   0.00630441  0.50061157  0.50019925
unknown system                          
           1
     3.550589    0.000135   -0.001374
     0.000139    3.552401    0.000683
    -0.001383    0.000685    3.552729
   Au   Cu
   1   3
Direct configuration=    14
   0.00458007  0.00150364  0.99947867
   0.50393247  0.50131454  0.00127036
   0.50550392  0.99889143  0.49981823
   0.00598354  0.50029039  0.50043274
unknown system                          
           1
     3.551523    0.000126   -0.001038
     0.000130    3.552814    0.000581
    -0.001048    0.000583    3.553114
   Au   Cu
   1   3
Direct configuration=    15
   0.00467982  0.00121833  0.99970841
   0.50415445  0.50116338  0.00102709
   0.50543960  0.99930319  0.49987960
   0.00572612  0.50031510  0.50038490
unknown system                          
           1
     3.552596    0.000117   -0.000653
     0.000121    3.553288    0.000464
    -0.000662    0.000466    3.553556
   Au   Cu
   1   3
Direct configuration=    16
   0.00479438  0.00089055  0.99997235
   0.50440948  0.50098969  0.00074756
   0.50536571  0.99977627  0.49995012
   0.00543042  0.50034348  0.50032996
unknown system                          
           1
     3.551672    0.000060   -0.000205
     0.000065    3.552344    0.000211
    -0.000214    0.000213    3.552521
   Au   Cu
   1   3
Direct configuration=    17
   0.00484632  0.00068564  0.00013434
   0.50460004  0.50087130  0.00057828
   0.50529039  0.00005106  0.50000404
   0.00526325  0.50039200  0.50028333
