Si (diamond)                            
   5.43000000000000     
     1.000000    0.000000    0.000000
     0.000000    1.000000    0.000000
     0.000000    0.000000    1.000000
   Si
     8
Direct
  0.000000  0.000000  0.000000
  0.000000  0.500000  0.500000
  0.500000  0.000000  0.500000
  0.500000  0.500000  0.000000
  0.250000  0.250000  0.250000
  0.250000  0.750000  0.750000
  0.750000  0.250000  0.750000
  0.750000  0.750000  0.250000
 
   64   64   64
 -30.000     -26.485     -16.569     -1.9810      14.872      31.442      45.544      55.701      61.284      62.470    
  60.073      55.287      49.402      43.318      37.397      31.885      26.939      22.631      18.966      15.897    
  13.351      11.250      9.5200      8.0996      6.9399      6.0022      5.2553      4.6727      4.2309      3.9099    
  3.6930      3.5679      3.5270      3.5679      3.6930      3.9099      4.2309      4.6727      5.2553      6.0022    
  6.9399      8.0996      9.5200      11.250      13.351      15.897      18.966      22.631      26.939      31.885    
  37.397      43.318      49.402      55.287      60.073      62.470      61.284      55.701      45.544      31.442    
  14.872     -1.9810     -16.569     -26.485     -26.485     -23.066     -13.422     0.75448      17.108      33.151    
  46.752      56.474      61.713      62.656      60.113      55.260      49.367      43.292      37.385      31.889    
  26.957      22.662      19.006      15.942      13.399      11.299      9.5697      8.1488      6.9882      6.0495    
  5.3015      4.7176      4.2746      3.9524      3.7346      3.6089      3.5679      3.6089      3.7346      3.9524    
  4.2746      4.7176      5.3015      6.0495      6.9882      8.1488      9.5697      11.299      13.399      15.942    
  19.006      22.662      26.957      31.889      37.385      43.292      49.367      55.260      60.113      62.656    
  61.713      56.474      46.752      33.151      17.108     0.75448     -13.422     -23.066     -16.569     -13.422    
 -4.5562      8.4436      23.376      37.918      50.094      58.584      62.855      63.122      60.176      55.152    
  49.247      43.203      37.343      31.896      27.010      22.752      19.123      16.076      13.544      11.448    
  9.7196      8.2976      7.1347      6.1930      5.4417      4.8543      4.4078      4.0824      3.8620      3.7346    
  3.6930      3.7346      3.8620      4.0824      4.4078      4.8543      5.4417      6.1930      7.1347      8.2976    
  9.7196      11.448      13.544      16.076      19.123      22.752      27.010      31.896      37.343      43.203    
  49.247      55.152      60.176      63.122      62.855      58.584      50.094      37.918      23.376      8.4436    
 -4.5562     -13.422     -1.9810     0.75448      8.4436      19.668      32.459      44.751      54.801      61.465    
  64.320      63.616      60.118      54.889      48.999      43.023      37.250      31.893      27.088      22.895    
  19.313      16.299      13.785      11.699      9.9727      8.5498      7.3838      6.4379      5.6816      5.0889    
  4.6371      4.3068      4.0824      3.9524      3.9099      3.9524      4.0824      4.3068      4.6371      5.0889    
  5.6816      6.4379      7.3838      8.5498      9.9727      11.699      13.785      16.299      19.313      22.895    
  27.088      31.893      37.250      43.023      48.999      54.889      60.118      63.616      64.320      61.465    
  54.801      44.751      32.459      19.668      8.4436     0.75448      14.872      17.108      23.376      32.459    
  42.679      52.285      59.818      64.351      65.586      63.810      59.753      54.381      48.568      42.715    
  37.081      31.862      27.178      23.083      19.573      16.607      14.123      12.053      10.334      8.9119    
  7.7435      6.7930      6.0309      5.4318      4.9734      4.6371      4.4078      4.2746      4.2309      4.2746    
  4.4078      4.6371      4.9734      5.4318      6.0309      6.7930      7.7435      8.9119      10.334      12.053    
  14.123      16.607      19.573      23.083      27.178      31.862      37.081      42.715      48.568      54.381    
  59.753      63.810      65.586      64.351      59.818      52.285      42.679      32.459      23.376      17.108    
  31.442      33.151      37.918      44.751      52.285      59.111      64.073      66.471      66.140      63.398    
  58.922      53.555      47.897      42.237      36.809      31.783      27.266      23.306      19.896      17.000    
  14.561      12.517      10.811      9.3935      8.2247      7.2706      6.5029      5.8971      5.4318      5.0889    
  4.8543      4.7176      4.6727      4.7176      4.8543      5.0889      5.4318      5.8971      6.5029      7.2706    
  8.2247      9.3935      10.811      12.517      14.561      17.000      19.896      23.306      27.266      31.783    
  36.809      42.237      47.897      53.555      58.922      63.398      66.140      66.471      64.073      59.111    
  52.285      44.751      37.918      33.151      45.544      46.752      50.094      54.801      59.818      64.073    
  66.706      67.237      65.617      62.183      57.547      52.353      46.943      41.561      36.409      31.638    
  27.340      23.554      20.277      17.476      15.100      13.095      11.412      10.007      8.8416      7.8865    
  7.1147      6.5029      6.0309      5.6816      5.4417      5.3015      5.2553      5.3015      5.4417      5.6816    
  6.0309      6.5029      7.1147      7.8865      8.8416      10.007      11.412      13.095      15.100      17.476    
  20.277      23.554      27.340      31.638      36.409      41.561      46.943      52.353      57.547      62.183    
  65.617      67.237      66.706      64.073      59.818      54.801      50.094      46.752      55.701      56.474    
  58.584      61.465      64.351      66.471      67.237      66.357      63.878      60.136      55.639      50.747    
  45.687      40.670      35.869      31.415      27.388      23.821      20.712      18.034      15.744      13.797    
  12.150      10.766      9.6112      8.6595      7.8865      7.2706      6.7930      6.4379      6.1930      6.0495    
  6.0022      6.0495      6.1930      6.4379      6.7930      7.2706      7.8865      8.6595      9.6112      10.766    
  12.150      13.797      15.744      18.034      20.712      23.821      27.388      31.415      35.869      40.670    
  45.687      50.747      55.639      60.136      63.878      66.357      67.237      66.471      64.351      61.465    
  58.584      56.474      61.284      61.713      62.855      64.320      65.586      66.140      65.617      63.878    
  61.033      57.389      53.231      48.749      44.135      39.565      35.187      31.110      27.404      24.100    
  21.198      18.675      16.498      14.630      13.037      11.687      10.553      9.6112      8.8416      8.2247    
  7.7435      7.3838      7.1347      6.9882      6.9399      6.9882      7.1347      7.3838      7.7435      8.2247    
  8.8416      9.6112      10.553      11.687      13.037      14.630      16.498      18.675      21.198      24.100    
  27.404      31.110      35.187      39.565      44.135      48.749      53.231      57.389      61.033      63.878    
  65.617      66.140      65.586      64.320      62.855      61.713      62.470      62.656      63.122      63.616    
  63.810      63.398      62.183      60.136      57.389      54.095      50.384      46.406      42.318      38.265    
  34.369      30.724      27.388      24.389      21.732      19.399      17.366      15.604      14.086      12.787    
  11.687      10.766      10.007      9.3935      8.9119      8.5498      8.2976      8.1488      8.0996      8.1488    
  8.2976      8.5498      8.9119      9.3935      10.007      10.766      11.687      12.787      14.086      15.604    
  17.366      19.399      21.732      24.389      27.388      30.724      34.369      38.265      42.318      46.406    
  50.384      54.095      57.389      60.136      62.183      63.398      63.810      63.616      63.122      62.656    
  60.073      60.113      60.176      60.118      59.753      58.922      57.547      55.639      53.231      50.384    
  47.198      43.791      40.287      36.801      33.435      30.264      27.340      24.688      22.314      20.208    
  18.353      16.727      15.310      14.086      13.037      12.150      11.412      10.811      10.334      9.9727    
  9.7196      9.5697      9.5200      9.5697      9.7196      9.9727      10.334      10.811      11.412      12.150    
  13.037      14.086      15.310      16.727      18.353      20.208      22.314      24.688      27.340      30.264    
  33.435      36.801      40.287      43.791      47.198      50.384      53.231      55.639      57.547      58.922    
  59.753      60.118      60.176      60.113      55.287      55.260      55.152      54.889      54.381      53.555    
  52.353      50.747      48.749      46.406      43.791      40.992      38.104      35.217      32.409      29.745    
  27.266      24.997      22.945      21.105      19.464      18.010      16.727      15.604      14.630      13.797    
  13.095      12.517      12.053      11.699      11.448      11.299      11.250      11.299      11.448      11.699    
  12.053      12.517      13.095      13.797      14.630      15.604      16.727      18.010      19.464      21.105    
  22.945      24.997      27.266      29.745      32.409      35.217      38.104      40.992      43.791      46.406    
  48.749      50.747      52.353      53.555      54.381      54.889      55.152      55.260      49.402      49.367    
  49.247      48.999      48.568      47.897      46.943      45.687      44.135      42.318      40.287      38.104    
  35.839      33.558      31.324      29.185      27.178      25.324      23.630      22.094      20.708      19.464    
  18.353      17.366      16.498      15.744      15.100      14.561      14.123      13.785      13.544      13.399    
  13.351      13.399      13.544      13.785      14.123      14.561      15.100      15.744      16.498      17.366    
  18.353      19.464      20.708      22.094      23.630      25.324      27.178      29.185      31.324      33.558    
  35.839      38.104      40.287      42.318      44.135      45.687      46.943      47.897      48.568      48.999    
  49.247      49.367      43.318      43.292      43.203      43.023      42.715      42.237      41.561      40.670    
  39.565      38.265      36.801      35.217      33.558      31.874      30.211      28.606      27.088      25.674    
  24.372      23.180      22.094      21.105      20.208      19.399      18.675      18.034      17.476      17.000    
  16.607      16.299      16.076      15.942      15.897      15.942      16.076      16.299      16.607      17.000    
  17.476      18.034      18.675      19.399      20.208      21.105      22.094      23.180      24.372      25.674    
  27.088      28.606      30.211      31.874      33.558      35.217      36.801      38.265      39.565      40.670    
  41.561      42.237      42.715      43.023      43.203      43.292      37.397      37.385      37.343      37.250    
  37.081      36.809      36.409      35.869      35.187      34.369      33.435      32.409      31.324      30.211    
  29.103      28.029      27.010      26.059      25.180      24.372      23.630      22.945      22.314      21.732    
  21.198      20.712      20.277      19.896      19.573      19.313      19.123      19.006      18.966      19.006    
  19.123      19.313      19.573      19.896      20.277      20.712      21.198      21.732      22.314      22.945    
  23.630      24.372      25.180      26.059      27.010      28.029      29.103      30.211      31.324      32.409    
  33.435      34.369      35.187      35.869      36.409      36.809      37.081      37.250      37.343      37.385    
  31.885      31.889      31.896      31.893      31.862      31.783      31.638      31.415      31.110      30.724    
  30.264      29.745      29.185      28.606      28.029      27.475      26.957      26.485      26.059      25.674    
  25.324      24.997      24.688      24.389      24.100      23.821      23.554      23.306      23.083      22.895    
  22.752      22.662      22.631      22.662      22.752      22.895      23.083      23.306      23.554      23.821    
  24.100      24.389      24.688      24.997      25.324      25.674      26.059      26.485      26.957      27.475    
  28.029      28.606      29.185      29.745      30.264      30.724      31.110      31.415      31.638      31.783    
  31.862      31.893      31.896      31.889      26.939      26.957      27.010      27.088      27.178      27.266    
  27.340      27.388      27.404      27.388      27.340      27.266      27.178      27.088      27.010      26.957    
  26.939      26.957      27.010      27.088      27.178      27.266      27.340      27.388      27.404      27.388    
  27.340      27.266      27.178      27.088      27.010      26.957      26.939      26.957      27.010      27.088    
  27.178      27.266      27.340      27.388      27.404      27.388      27.340      27.266      27.178      27.088    
  27.010      26.957      26.939      26.957      27.010      27.088      27.178      27.266      27.340      27.388    
  27.404      27.388      27.340      27.266      27.178      27.088      27.010      26.957      22.631      22.662    
  22.752      22.895      23.083      23.306      23.554      23.821      24.100      24.389      24.688      24.997    
  25.324      25.674      26.059      26.485      26.957      27.475      28.029      28.606      29.185      29.745    
  30.264      30.724      31.110      31.415      31.638      31.783      31.862      31.893      31.896      31.889    
  31.885      31.889      31.896      31.893      31.862      31.783      31.638      31.415      31.110      30.724    
  30.264      29.745      29.185      28.606      28.029      27.475      26.957      26.485      26.059      25.674    
  25.324      24.997      24.688      24.389      24.100      23.821      23.554      23.306      23.083      22.895    
  22.752      22.662      18.966      19.006      19.123      19.313      19.573      19.896      20.277      20.712    
  21.198      21.732      22.314      22.945      23.630      24.372      25.180      26.059      27.010      28.029    
  29.103      30.211      31.324      32.409      33.435      34.369      35.187      35.869      36.409      36.809    
  37.081      37.250      37.343      37.385      37.397      37.385      37.343      37.250      37.081      36.809    
  36.409      35.869      35.187      34.369      33.435      32.409      31.324      30.211      29.103      28.029    
  27.010      26.059      25.180      24.372      23.630      22.945      22.314      21.732      21.198      20.712    
  20.277      19.896      19.573      19.313      19.123      19.006      15.897      15.942      16.076      16.299    
  16.607      17.000      17.476      18.034      18.675      19.399      20.208      21.105      22.094      23.180    
  24.372      25.674      27.088      28.606      30.211      31.874      33.558      35.217      36.801      38.265    
  39.565      40.670      41.561      42.237      42.715      43.023      43.203      43.292      43.318      43.292    
  43.203      43.023      42.715      42.237      41.561      40.670      39.565      38.265      36.801      35.217    
  33.558      31.874      30.211      28.606      27.088      25.674      24.372      23.180      22.094      21.105    
  20.208      19.399      18.675      18.034      17.476      17.000      16.607      16.299      16.076      15.942    
  13.351      13.399      13.544      13.785      14.123      14.561      15.100      15.744      16.498      17.366    
  18.353      19.464      20.708      22.094      23.630      25.324      27.178      29.185      31.324      33.558    
  35.839      38.104      40.287      42.318      44.135      45.687      46.943      47.897      48.568      48.999    
  49.247      49.367      49.402      49.367      49.247      48.999      48.568      47.897      46.943      45.687    
  44.135      42.318      40.287      38.104      35.839      33.558      31.324      29.185      27.178      25.324    
  23.630      22.094      20.708      19.464      18.353      17.366      16.498      15.744      15.100      14.561    
  14.123      13.785      13.544      13.399      11.250      11.299      11.448      11.699      12.053      12.517    
  13.095      13.797      14.630      15.604      16.727      18.010      19.464      21.105      22.945      24.997    
  27.266      29.745      32.409      35.217      38.104      40.992      43.791      46.406      48.749      50.747    
  52.353      53.555      54.381      54.889      55.152      55.260      55.287      55.260      55.152      54.889    
  54.381      53.555      52.353      50.747      48.749      46.406      43.791      40.992      38.104      35.217    
  32.409      29.745      27.266      24.997      22.945      21.105      19.464      18.010      16.727      15.604    
  14.630      13.797      13.095      12.517      12.053      11.699      11.448      11.299      9.5200      9.5697    
  9.7196      9.9727      10.334      10.811      11.412      12.150      13.037      14.086      15.310      16.727    
  18.353      20.208      22.314      24.688      27.340      30.264      33.435      36.801      40.287      43.791    
  47.198      50.384      53.231      55.639      57.547      58.922      59.753      60.118      60.176      60.113    
  60.073      60.113      60.176      60.118      59.753      58.922      57.547      55.639      53.231      50.384    
  47.198      43.791      40.287      36.801      33.435      30.264      27.340      24.688      22.314      20.208    
  18.353      16.727      15.310      14.086      13.037      12.150      11.412      10.811      10.334      9.9727    
  9.7196      9.5697      8.0996      8.1488      8.2976      8.5498      8.9119      9.3935      10.007      10.766    
  11.687      12.787      14.086      15.604      17.366      19.399      21.732      24.389      27.388      30.724    
  34.369      38.265      42.318      46.406      50.384      54.095      57.389      60.136      62.183      63.398    
  63.810      63.616      63.122      62.656      62.470      62.656      63.122      63.616      63.810      63.398    
  62.183      60.136      57.389      54.095      50.384      46.406      42.318      38.265      34.369      30.724    
  27.388      24.389      21.732      19.399      17.366      15.604      14.086      12.787      11.687      10.766    
  10.007      9.3935      8.9119      8.5498      8.2976      8.1488      6.9399      6.9882      7.1347      7.3838    
  7.7435      8.2247      8.8416      9.6112      10.553      11.687      13.037      14.630      16.498      18.675    
  21.198      24.100      27.404      31.110      35.187      39.565      44.135      48.749      53.231      57.389    
  61.033      63.878      65.617      66.140      65.586      64.320      62.855      61.713      61.284      61.713    
  62.855      64.320      65.586      66.140      65.617      63.878      61.033      57.389      53.231      48.749    
  44.135      39.565      35.187      31.110      27.404      24.100      21.198      18.675      16.498      14.630    
  13.037      11.687      10.553      9.6112      8.8416      8.2247      7.7435      7.3838      7.1347      6.9882    
  6.0022      6.0495      6.1930      6.4379      6.7930      7.2706      7.8865      8.6595      9.6112      10.766    
  12.150      13.797      15.744      18.034      20.712      23.821      27.388      31.415      35.869      40.670    
  45.687      50.747      55.639      60.136      63.878      66.357      67.237      66.471      64.351      61.465    
  58.584      56.474      55.701      56.474      58.584      61.465      64.351      66.471      67.237      66.357    
  63.878      60.136      55.639      50.747      45.687      40.670      35.869      31.415      27.388      23.821    
  20.712      18.034      15.744      13.797      12.150      10.766      9.6112      8.6595      7.8865      7.2706    
  6.7930      6.4379      6.1930      6.0495      5.2553      5.3015      5.4417      5.6816      6.0309      6.5029    
  7.1147      7.8865      8.8416      10.007      11.412      13.095      15.100      17.476      20.277      23.554    
  27.340      31.638      36.409      41.561      46.943      52.353      57.547      62.183      65.617      67.237    
  66.706      64.073      59.818      54.801      50.094      46.752      45.544      46.752      50.094      54.801    
  59.818      64.073      66.706      67.237      65.617      62.183      57.547      52.353      46.943      41.561    
  36.409      31.638      27.340      23.554      20.277      17.476      15.100      13.095      11.412      10.007    
  8.8416      7.8865      7.1147      6.5029      6.0309      5.6816      5.4417      5.3015      4.6727      4.7176    
  4.8543      5.0889      5.4318      5.8971      6.5029      7.2706      8.2247      9.3935      10.811      12.517    
  14.561      17.000      19.896      23.306      27.266      31.783      36.809      42.237      47.897      53.555    
  58.922      63.398      66.140      66.471      64.073      59.111      52.285      44.751      37.918      33.151    
  31.442      33.151      37.918      44.751      52.285      59.111      64.073      66.471      66.140      63.398    
  58.922      53.555      47.897      42.237      36.809      31.783      27.266      23.306      19.896      17.000    
  14.561      12.517      10.811      9.3935      8.2247      7.2706      6.5029      5.8971      5.4318      5.0889    
  4.8543      4.7176      4.2309      4.2746      4.4078      4.6371      4.9734      5.4318      6.0309      6.7930    
  7.7435      8.9119      10.334      12.053      14.123      16.607      19.573      23.083      27.178      31.862    
  37.081      42.715      48.568      54.381      59.753      63.810      65.586      64.351      59.818      52.285    
  42.679      32.459      23.376      17.108      14.872      17.108      23.376      32.459      42.679      52.285    
  59.818      64.351      65.586      63.810      59.753      54.381      48.568      42.715      37.081      31.862    
  27.178      23.083      19.573      16.607      14.123      12.053      10.334      8.9119      7.7435      6.7930    
  6.0309      5.4318      4.9734      4.6371      4.4078      4.2746      3.9099      3.9524      4.0824      4.3068    
  4.6371      5.0889      5.6816      6.4379      7.3838      8.5498      9.9727      11.699      13.785      16.299    
  19.313      22.895      27.088      31.893      37.250      43.023      48.999      54.889      60.118      63.616    
  64.320      61.465      54.801      44.751      32.459      19.668      8.4436     0.75448     -1.9810     0.75448    
  8.4436      19.668      32.459      44.751      54.801      61.465      64.320      63.616      60.118      54.889    
  48.999      43.023      37.250      31.893      27.088      22.895      19.313      16.299      13.785      11.699    
  9.9727      8.5498      7.3838      6.4379      5.6816      5.0889      4.6371      4.3068      4.0824      3.9524    
  3.6930      3.7346      3.8620      4.0824      4.4078      4.8543      5.4417      6.1930      7.1347      8.2976    
  9.7196      11.448      13.544      16.076      19.123      22.752      27.010      31.896      37.343      43.203    
  49.247      55.152      60.176      63.122      62.855      58.584      50.094      37.918      23.376      8.4436    
 -4.5562     -13.422     -16.569     -13.422     -4.5562      8.4436      23.376      37.918      50.094      58.584    
  62.855      63.122      60.176      55.152      49.247      43.203      37.343      31.896      27.010      22.752    
  19.123      16.076      13.544      11.448      9.7196      8.2976      7.1347      6.1930      5.4417      4.8543    
  4.4078      4.0824      3.8620      3.7346      3.5679      3.6089      3.7346      3.9524      4.2746      4.7176    
  5.3015      6.0495      6.9882      8.1488      9.5697      11.299      13.399      15.942      19.006      22.662    
  26.957      31.889      37.385      43.292      49.367      55.260      60.113      62.656      61.713      56.474    
  46.752      33.151      17.108     0.75448     -13.422     -23.066     -26.485     -23.066     -13.422     0.75448    
  17.108      33.151      46.752      56.474      61.713      62.656      60.113      55.260      49.367      43.292    
  37.385      31.889      26.957      22.662      19.006      15.942      13.399      11.299      9.5697      8.1488    
  6.9882      6.0495      5.3015      4.7176      4.2746      3.9524      3.7346      3.6089      3.5270      3.5679    
  3.6930      3.9099      4.2309      4.6727      5.2553      6.0022      6.9399      8.0996      9.5200      11.250    
  13.351      15.897      18.966      22.631      26.939      31.885      37.397      43.318      49.402      55.287    
  60.073      62.470      61.284      55.701      45.544      31.442      14.872     -1.9810     -16.569     -26.485    
 -30.000     -26.485     -16.569     -1.9810      14.872      31.442      45.544      55.701      61.284      62.470    
  60.073      55.287      49.402      43.318      37.397      31.885      26.939      22.631      18.966      15.897    
  13.351      11.250      9.5200      8.0996      6.9399      6.0022      5.2553      4.6727      4.2309      3.9099    
  3.6930      3.5679      3.5679      3.6089      3.7346      3.9524      4.2746      4.7176      5.3015      6.0495    
  6.9882      8.1488      9.5697      11.299      13.399      15.942      19.006      22.662      26.957      31.889    
  37.385      43.292      49.367      55.260      60.113      62.656      61.713      56.474      46.752      33.151    
  17.108     0.75448     -13.422     -23.066     -26.485     -23.066     -13.422     0.75448      17.108      33.151    
  46.752      56.474      61.713      62.656      60.113      55.260      49.367      43.292      37.385      31.889    
  26.957      22.662      19.006      15.942      13.399      11.299      9.5697      8.1488      6.9882      6.0495    
  5.3015      4.7176      4.2746      3.9524      3.7346      3.6089      3.6930      3.7346      3.8620      4.0824    
  4.4078      4.8543      5.4417      6.1930      7.1347      8.2976      9.7196      11.448      13.544      16.076    
  19.123      22.752      27.010      31.896      37.343      43.203      49.247      55.152      60.176      63.122    
  62.855      58.584      50.094      37.918      23.376      8.4436     -4.5562     -13.422     -16.569     -13.422    
 -4.5562      8.4436      23.376      37.918      50.094      58.584      62.855      63.122      60.176      55.152    
  49.247      43.203      37.343      31.896      27.010      22.752      19.123      16.076      13.544      11.448    
  9.7196      8.2976      7.1347      6.1930      5.4417      4.8543      4.4078      4.0824      3.8620      3.7346    
  3.9099      3.9524      4.0824      4.3068      4.6371      5.0889      5.6816      6.4379      7.3838      8.5498    
  9.9727      11.699      13.785      16.299      19.313      22.895      27.088      31.893      37.250      43.023    
  48.999      54.889      60.118      63.616      64.320      61.465      54.801      44.751      32.459      19.668    
  8.4436     0.75448     -1.9810     0.75448      8.4436      19.668      32.459      44.751      54.801      61.465    
  64.320      63.616      60.118      54.889      48.999      43.023      37.250      31.893      27.088      22.895    
  19.313      16.299      13.785      11.699      9.9727      8.5498      7.3838      6.4379      5.6816      5.0889    
  4.6371      4.3068      4.0824      3.9524      4.2309      4.2746      4.4078      4.6371      4.9734      5.4318    
  6.0309      6.7930      7.7435      8.9119      10.334      12.053      14.123      16.607      19.573      23.083    
  27.178      31.862      37.081      42.715      48.568      54.381      59.753      63.810      65.586      64.351    
  59.818      52.285      42.679      32.459      23.376      17.108      14.872      17.108      23.376      32.459    
  42.679      52.285      59.818      64.351      65.586      63.810      59.753      54.381      48.568      42.715    
  37.081      31.862      27.178      23.083      19.573      16.607      14.123      12.053      10.334      8.9119    
  7.7435      6.7930      6.0309      5.4318      4.9734      4.6371      4.4078      4.2746      4.6727      4.7176    
  4.8543      5.0889      5.4318      5.8971      6.5029      7.2706      8.2247      9.3935      10.811      12.517    
  14.561      17.000      19.896      23.306      27.266      31.783      36.809      42.237      47.897      53.555    
  58.922      63.398      66.140      66.471      64.073      59.111      52.285      44.751      37.918      33.151    
  31.442      33.151      37.918      44.751      52.285      59.111      64.073      66.471      66.140      63.398    
  58.922      53.555      47.897      42.237      36.809      31.783      27.266      23.306      19.896      17.000    
  14.561      12.517      10.811      9.3935      8.2247      7.2706      6.5029      5.8971      5.4318      5.0889    
  4.8543      4.7176      5.2553      5.3015      5.4417      5.6816      6.0309      6.5029      7.1147      7.8865    