    8    8    1    1
  0.2001288E+02  0.5430000E-09  0.5430000E-09  0.5430000E-09  0.5000000E-15
  1.000000000000000E-004
  CAR 
 Si (diamond)                            
     32     56     21
 
  0.0000000E+00  0.0000000E+00  0.0000000E+00  0.1000000E-02
    1       -6.130508   1.000000
    2       -1.984501   1.000000
    3       -1.984501   1.000000
    4       -1.984501   1.000000
    5       -1.984501   1.000000
    6       -1.984501   1.000000
    7       -1.984501   1.000000
    8        2.980114   1.000000
    9        2.980114   1.000000
   10        2.980114   1.000000
   11        2.980114   1.000000
   12        2.980114   1.000000
   13        2.980114   1.000000
   14        5.833124   1.000000
   15        5.833124   1.000000
   16        5.833124   1.000000
   17        6.544213   0.000000
   18        6.544213   0.000000
   19        6.544213   0.000000
   20        6.544213   0.000000
   21        6.544213   0.000000
 
  0.1000000E+00  0.0000000E+00  0.0000000E+00  0.6000000E-02
    1       -6.086784   1.000000
    2       -2.731060   1.000000
    3       -1.970105   1.000000
    4       -1.970105   1.000000
    5       -1.970105   1.000000
    6       -1.970105   1.000000
    7       -1.185806   1.000000
    8        2.855505   1.000000
    9        2.855505   1.000000
   10        2.855505   1.000000
   11        2.855505   1.000000
   12        3.019609   1.000000
   13        3.019609   1.000000
   14        5.552809   1.000000
   15        5.656130   1.000000
   16        5.656130   1.000000
   17        6.423993   0.000000
   18        6.779719   0.000000
   19        6.779719   0.000000
   20        6.779719   0.000000
   21        6.780075   0.000000
 
  0.2000000E+00  0.0000000E+00  0.0000000E+00  0.6000000E-02
    1       -5.955668   1.000000
    2       -3.416952   1.000000
    3       -1.931343   1.000000
    4       -1.931343   1.000000
    5       -1.931343   1.000000
    6       -1.931343   1.000000
    7       -0.344833   1.000000
    8        2.570716   1.000000
    9        2.570716   1.000000
   10        2.570716   1.000000
   11        2.570716   1.000000
   12        3.137709   1.000000
   13        3.137709   1.000000
   14        4.894643   1.000000
   15        5.255100   1.000000
   16        5.255100   1.000000
   17        6.415433   0.000000
   18        7.145606   0.000000
   19        7.398536   0.000000
   20        7.398536   0.000000
   21        7.398536   0.000000
 
  0.3000000E+00  0.0000000E+00  0.0000000E+00  0.6000000E-02
    1       -5.737849   1.000000
    2       -4.035317   1.000000
    3       -1.880818   1.000000
    4       -1.880818   1.000000
    5       -1.880818   1.000000
    6       -1.880818   1.000000
    7        0.526993   1.000000
    8        2.271842   1.000000
    9        2.271842   1.000000
   10        2.271842   1.000000
   11        2.271842   1.000000
   12        3.332862   1.000000
   13        3.332862   1.000000
   14        4.081894   1.000000
   15        4.792468   1.000000
   16        4.792468   1.000000
   17        6.509159   0.000000
   18        7.635662   0.000000
   19        7.664031   0.000000
   20        8.260833   0.000000
   21        8.260833   0.000000
 
  0.4000000E+00  0.0000000E+00  0.0000000E+00  0.6000000E-02
    1       -5.434688   1.000000
    2       -4.580493   1.000000
    3       -1.837607   1.000000
    4       -1.837607   1.000000
    5       -1.837607   1.000000
    6       -1.837607   1.000000
    7        1.417783   1.000000
    8        2.057024   1.000000
    9        2.057024   1.000000
   10        2.057024   1.000000
   11        2.057024   1.000000
   12        3.210454   1.000000
   13        3.602686   1.000000
   14        3.602686   1.000000
   15        4.344181   1.000000
   16        4.344181   1.000000
   17        6.696632   0.000000
   18        7.296922   0.000000
   19        8.249872   0.000000
   20        9.268286   0.000000
   21        9.268286   0.000000
 
  0.5000000E+00  0.0000000E+00  0.0000000E+00  0.3000000E-02
    1       -5.048077   1.000000
    2       -5.048077   1.000000
    3       -1.820459   1.000000
    4       -1.820459   1.000000
    5       -1.820459   1.000000
    6       -1.820459   1.000000
    7        1.979579   1.000000
    8        1.979579   1.000000
    9        1.979579   1.000000
   10        1.979579   1.000000
   11        2.316728   1.000000
   12        2.316728   1.000000
   13        3.942439   1.000000
   14        3.942439   1.000000
   15        3.942439   1.000000
   16        3.942439   1.000000
   17        6.965048   0.000000
   18        6.965048   0.000000
   19        8.970409   0.000000
   20        8.970409   0.000000
   21       10.106960   0.000000
 
  0.1000000E+00  0.1000000E+00  0.0000000E+00  0.1200000E-01
    1       -6.043135   1.000000
    2       -2.707330   1.000000
    3       -2.707330   1.000000
    4       -2.025790   1.000000
    5       -1.889781   1.000000
    6       -1.185149   1.000000
    7       -1.185149   1.000000
    8        2.499075   1.000000
    9        2.875192   1.000000
   10        2.875192   1.000000
   11        2.921316   1.000000
   12        2.921316   1.000000
   13        3.050252   1.000000
   14        5.094337   1.000000
   15        5.480129   1.000000
   16        5.792030   1.000000
   17        6.625906   0.000000
   18        6.670745   0.000000
   19        6.670745   0.000000
   20        7.004485   0.000000
   21        7.004487   0.000000
 
  0.2000000E+00  0.1000000E+00  0.0000000E+00  0.2400000E-01
    1       -5.912344   1.000000
    2       -3.386877   1.000000
    3       -2.639212   1.000000
    4       -2.069045   1.000000
    5       -1.780996   1.000000
    6       -1.189155   1.000000
    7       -0.364985   1.000000
    8        2.127562   1.000000
    9        2.543516   1.000000
   10        2.701100   1.000000
   11        2.978636   1.000000
   12        2.995740   1.000000
   13        3.073820   1.000000
   14        4.444943   1.000000
   15        5.078283   1.000000
   16        5.550756   1.000000
   17        6.669683   0.000000
   18        6.938958   0.000000
   19        7.309195   0.000000
   20        7.350788   0.000000
   21        7.597100   0.000000
 
  0.3000000E+00  0.1000000E+00  0.0000000E+00  0.2400000E-01
    1       -5.695256   1.000000
    2       -4.000764   1.000000
    3       -2.535936   1.000000
    4       -2.117887   1.000000
    5       -1.648453   1.000000
    6       -1.212620   1.000000
    7        0.475851   1.000000
    8        1.841231   1.000000
    9        2.180976   1.000000
   10        2.489525   1.000000
   11        2.781804   1.000000
   12        3.163604   1.000000
   13        3.313861   1.000000
   14        3.725467   1.000000
   15        4.613310   1.000000
   16        5.069710   1.000000
   17        6.768462   0.000000
   18        7.629146   0.000000
   19        7.822784   0.000000
   20        7.911402   0.000000
   21        8.186540   0.000000
 
  0.4000000E+00  0.1000000E+00  0.0000000E+00  0.2400000E-01
    1       -5.393215   1.000000
    2       -4.542786   1.000000
    3       -2.412961   1.000000
    4       -2.189605   1.000000
    5       -1.505537   1.000000
    6       -1.271838   1.000000
    7        1.321189   1.000000
    8        1.695707   1.000000
    9        1.885544   1.000000
   10        2.376783   1.000000
   11        2.551691   1.000000
   12        2.958973   1.000000
   13        3.426823   1.000000
   14        3.641567   1.000000
   15        4.163784   1.000000
   16        4.541544   1.000000
   17        6.957505   0.000000
   18        7.551961   0.000000
   19        8.418790   0.000000
   20        8.554534   0.000000
   21        9.209730   0.000000
 
  0.5000000E+00  0.1000000E+00  0.0000000E+00  0.1200000E-01
    1       -5.008141   1.000000
    2       -5.008141   1.000000
    3       -2.290986   1.000000
    4       -2.290986   1.000000
    5       -1.373028   1.000000
    6       -1.373028   1.000000
    7        1.713074   1.000000
    8        1.713074   1.000000
    9        2.154120   1.000000
   10        2.154120   1.000000
   11        2.400336   1.000000
   12        2.400336   1.000000
   13        3.763113   1.000000
   14        3.763113   1.000000
   15        4.054478   1.000000
   16        4.054478   1.000000
   17        7.224855   0.000000
   18        7.224855   0.000000
   19        9.117369   0.000000
   20        9.117369   0.000000
   21        9.574439   0.000000
 
  0.2000000E+00  0.2000000E+00  0.0000000E+00  0.1200000E-01
    1       -5.782849   1.000000
    2       -3.298595   1.000000
    3       -3.298595   1.000000
    4       -2.211545   1.000000
    5       -1.606361   1.000000
    6       -0.430593   1.000000
    7       -0.430593   1.000000
    8        1.767827   1.000000
    9        2.613637   1.000000
   10        2.613637   1.000000
   11        2.939985   1.000000
   12        2.939985   1.000000
   13        3.256502   1.000000
   14        3.802619   1.000000
   15        4.671794   1.000000
   16        5.655323   1.000000
   17        6.864650   0.000000
   18        7.320762   0.000000
   19        7.320762   0.000000
   20        7.910599   0.000000
   21        7.910599   0.000000
 
  0.3000000E+00  0.2000000E+00  0.0000000E+00  0.2400000E-01
    1       -5.567957   1.000000
    2       -3.898485   1.000000
    3       -3.158432   1.000000
    4       -2.375097   1.000000
    5       -1.403856   1.000000
    6       -0.551501   1.000000
    7        0.325171   1.000000
    8        1.548893   1.000000
    9        2.206723   1.000000
   10        2.775885   1.000000
   11        2.840352   1.000000
   12        3.135543   1.000000
   13        3.268430   1.000000
   14        3.290358   1.000000
   15        4.202509   1.000000
   16        5.373921   1.000000
   17        7.249786   0.000000
   18        7.425379   0.000000
   19        8.205862   0.000000
   20        8.344918   0.000000
   21        8.520171   0.000000
 
  0.4000000E+00  0.2000000E+00  0.0000000E+00  0.2400000E-01
    1       -5.269305   1.000000
    2       -4.430670   1.000000
    3       -2.977596   1.000000
    4       -2.565448   1.000000
    5       -1.178883   1.000000
    6       -0.728525   1.000000
    7        1.061655   1.000000
    8        1.495234   1.000000
    9        1.852731   1.000000
   10        2.459759   1.000000
   11        2.839990   1.000000
   12        3.024640   1.000000
   13        3.118986   1.000000
   14        3.747020   1.000000
   15        3.751442   1.000000
   16        4.861480   1.000000
   17        7.613665   0.000000
   18        8.000682   0.000000
   19        8.184996   0.000000
   20        8.897767   0.000000
   21        9.232960   0.000000
 
  0.5000000E+00  0.2000000E+00  0.0000000E+00  0.1200000E-01
    1       -4.889130   1.000000
    2       -4.889130   1.000000
    3       -2.772887   1.000000
    4       -2.772887   1.000000
    5       -0.946053   1.000000
    6       -0.946053   1.000000
    7        1.603959   1.000000
    8        1.603959   1.000000
    9        1.771784   1.000000
   10        1.771784   1.000000
   11        2.946404   1.000000
   12        2.946404   1.000000
   13        3.353147   1.000000
   14        3.353147   1.000000
   15        4.287693   1.000000
   16        4.287693   1.000000
   17        7.873048   0.000000
   18        7.873048   0.000000
   19        8.968084   0.000000
   20        8.968085   0.000000
   21        9.531088   0.000000
 
  0.3000000E+00  0.3000000E+00  0.0000000E+00  0.1200000E-01
    1       -5.357059   1.000000
    2       -3.732710   1.000000
    3       -3.732710   1.000000
    4       -2.657272   1.000000
    5       -1.135792   1.000000
    6        0.088057   1.000000
    7        0.088057   1.000000
    8        1.421013   1.000000
    9        2.338911   1.000000
   10        2.338911   1.000000
   11        2.519126   1.000000
   12        3.318210   1.000000
   13        3.318210   1.000000
   14        3.586793   1.000000
   15        3.730019   1.000000
   16        5.387792   1.000000
   17        7.247847   0.000000
   18        8.310928   0.000000
   19        8.310928   0.000000
   20        8.900713   0.000000
   21        9.115403   0.000000
 
  0.4000000E+00  0.3000000E+00  0.0000000E+00  0.2400000E-01
    1       -5.064393   1.000000
    2       -4.247016   1.000000
    3       -3.511167   1.000000
    4       -2.954221   1.000000
    5       -0.841030   1.000000
    6       -0.206903   1.000000
    7        0.704055   1.000000
    8        1.457189   1.000000
    9        1.908212   1.000000
   10        1.944533   1.000000
   11        2.568380   1.000000
   12        3.278899   1.000000
   13        3.416532   1.000000
   14        3.655223   1.000000
   15        3.894136   1.000000
   16        5.055683   1.000000
   17        7.691589   0.000000
   18        8.491408   0.000000
   19        9.016434   0.000000
   20        9.055468   0.000000
   21        9.333287   0.000000
 
  0.5000000E+00  0.3000000E+00  0.0000000E+00  0.1200000E-01
    1       -4.692930   1.000000
    2       -4.692930   1.000000
    3       -3.245932   1.000000
    4       -3.245932   1.000000
    5       -0.525799   1.000000
    6       -0.525799   1.000000
    7        1.306130   1.000000
    8        1.306130   1.000000
    9        1.640147   1.000000
   10        1.640147   1.000000
   11        2.885594   1.000000
   12        2.885594   1.000000
   13        3.555523   1.000000
   14        3.555523   1.000000
   15        4.507041   1.000000
   16        4.507041   1.000000
   17        8.484208   0.000000
   18        8.484208   0.000000
   19        8.733970   0.000000
   20        8.733970   0.000000
   21        9.456586   0.000000
 
  0.4000000E+00  0.4000000E+00  0.0000000E+00  0.1200000E-01
    1       -4.781025   1.000000
    2       -3.997094   1.000000
    3       -3.997094   1.000000
    4       -3.335855   1.000000
    5       -0.481087   1.000000
    6        0.305437   1.000000
    7        0.305437   1.000000
    8        1.357755   1.000000
    9        1.567170   1.000000
   10        2.147260   1.000000
   11        2.147260   1.000000
   12        2.831748   1.000000
   13        4.017180   1.000000
   14        4.043353   1.000000
   15        4.043353   1.000000
   16        4.987300   1.000000
   17        7.745507   0.000000
   18        8.732032   0.000000
   19        9.019703   0.000000
   20        9.019703   0.000000
   21        9.498329   0.000000
 
  0.5000000E+00  0.4000000E+00  0.0000000E+00  0.1200000E-01
    1       -4.423251   1.000000
    2       -4.423251   1.000000
    3       -3.689238   1.000000
    4       -3.689238   1.000000
    5       -0.096478   1.000000
    6       -0.096478   1.000000
    7        0.823581   1.000000
    8        0.823581   1.000000
    9        1.804546   1.000000
   10        1.804546   1.000000
   11        2.447782   1.000000
   12        2.447782   1.000000
   13        4.122549   1.000000
   14        4.122549   1.000000
   15        4.615165   1.000000
   16        4.615165   1.000000
   17        8.219863   0.000000
   18        8.219863   0.000000
   19        8.736193   0.000000
   20        8.736193   0.000000
   21        9.711466   0.000000
 
  0.5000000E+00  0.5000000E+00  0.0000000E+00  0.3000000E-02
    1       -4.085834   1.000000
    2       -4.085834   1.000000
    3       -4.085834   1.000000
    4       -4.085834   1.000000
    5        0.352696   1.000000
    6        0.352696   1.000000
    7        0.352696   1.000000
    8        0.352696   1.000000
    9        2.079620   1.000000
   10        2.079620   1.000000
   11        2.079620   1.000000
   12        2.079620   1.000000
   13        4.504735   1.000000
   14        4.504735   1.000000
   15        4.504735   1.000000
   16        4.504735   1.000000
   17        8.287428   0.000000
   18        8.287428   0.000000
   19        8.287428   0.000000
   20        8.287428   0.000000
   21       10.629024   0.000000
 
  0.1000000E+00  0.1000000E+00  0.1000000E+00  0.8000000E-02
    1       -5.999602   1.000000
    2       -2.687666   1.000000
    3       -2.687666   1.000000
    4       -2.687666   1.000000
    5       -1.185716   1.000000
    6       -1.185716   1.000000
    7       -1.185716   1.000000
    8        2.551479   1.000000
    9        2.551479   1.000000
   10        2.551479   1.000000
   11        3.089225   1.000000
   12        3.089225   1.000000
   13        3.089225   1.000000
   14        4.687009   1.000000
   15        5.633303   1.000000
   16        5.633303   1.000000
   17        6.651049   0.000000
   18        6.651049   0.000000
   19        6.651049   0.000000
   20        7.409394   0.000000
   21        7.409394   0.000000
 
  0.2000000E+00  0.1000000E+00  0.1000000E+00  0.2400000E-01
    1       -5.869238   1.000000
    2       -3.358675   1.000000
    3       -2.633479   1.000000
    4       -2.633479   1.000000
    5       -1.190588   1.000000
    6       -1.190588   1.000000
    7       -0.391374   1.000000
    8        2.192215   1.000000
    9        2.192215   1.000000
   10        2.709686   1.000000
   11        3.041238   1.000000
   12        3.041238   1.000000
   13        3.205672   1.000000
   14        4.054850   1.000000
   15        5.261480   1.000000
   16        5.476459   1.000000
   17        6.733990   0.000000
   18        6.979941   0.000000
   19        6.979941   0.000000
   20        7.668171   0.000000
   21        8.178349   0.000000
 
  0.3000000E+00  0.1000000E+00  0.1000000E+00  0.2400000E-01
    1       -5.652912   1.000000
    2       -3.967279   1.000000
    3       -2.559904   1.000000
    4       -2.559904   1.000000
    5       -1.205496   1.000000
    6       -1.205496   1.000000
    7        0.411875   1.000000
    8        1.911365   1.000000
    9        1.911365   1.000000
   10        2.849220   1.000000
   11        2.849220   1.000000
   12        2.976335   1.000000
   13        3.382001   1.000000
   14        3.397929   1.000000
   15        4.820618   1.000000
   16        4.992383   1.000000
   17        6.885574   0.000000
   18        7.671630   0.000000
   19        7.671630   0.000000
   20        8.080602   0.000000
   21        8.081067   0.000000
 
  0.4000000E+00  0.1000000E+00  0.1000000E+00  0.2400000E-01
    1       -5.352063   1.000000
    2       -4.505774   1.000000
    3       -2.493549   1.000000
    4       -2.493549   1.000000
    5       -1.227003   1.000000
    6       -1.227003   1.000000
    7        1.202629   1.000000
    8        1.746586   1.000000
    9        1.746586   1.000000
   10        2.663473   1.000000
   11        2.663473   1.000000
   12        2.687156   1.000000
   13        3.353704   1.000000
   14        3.663082   1.000000
   15        4.387261   1.000000
   16        4.403265   1.000000
   17        7.108267   0.000000
   18        7.730174   0.000000
   19        8.594518   0.000000
   20        8.594518   0.000000
   21        8.633759   0.000000
 
  0.5000000E+00  0.1000000E+00  0.1000000E+00  0.1200000E-01
    1       -4.968707   1.000000
    2       -4.968707   1.000000
    3       -2.466135   1.000000
    4       -2.466135   1.000000
    5       -1.237989   1.000000
    6       -1.237989   1.000000
    7        1.694890   1.000000
    8        1.694890   1.000000
    9        1.963084   1.000000
   10        1.963084   1.000000
   11        2.588630   1.000000
   12        2.588630   1.000000
   13        3.837154   1.000000
   14        3.837154   1.000000
   15        3.995874   1.000000
   16        3.995874   1.000000
   17        7.395331   0.000000
   18        7.395331   0.000000
   19        9.293187   0.000000
   20        9.293338   0.000000
   21        9.507563   0.000000
 
  0.2000000E+00  0.2000000E+00  0.1000000E+00  0.2400000E-01
    1       -5.740255   1.000000
    2       -3.276843   1.000000
    3       -3.276843   1.000000
    4       -2.625722   1.000000
    5       -1.190046   1.000000
    6       -0.473801   1.000000
    7       -0.473801   1.000000
    8        1.862857   1.000000
    9        2.385231   1.000000
   10        2.385231   1.000000
   11        3.179334   1.000000
   12        3.179334   1.000000
   13        3.293721   1.000000
   14        3.433674   1.000000
   15        4.969172   1.000000
   16        5.541373   1.000000
   17        6.915254   0.000000
   18        7.100707   0.000000
   19        7.100707   0.000000
   20        8.383538   0.000000
   21        8.386101   0.000000
 
  0.3000000E+00  0.2000000E+00  0.1000000E+00  0.4800000E-01
    1       -5.526308   1.000000
    2       -3.868602   1.000000
    3       -3.150069   1.000000
    4       -2.642221   1.000000
    5       -1.168915   1.000000
    6       -0.612410   1.000000
    7        0.228904   1.000000
    8        1.673445   1.000000
    9        2.110347   1.000000
   10        2.699472   1.000000
   11        2.795109   1.000000
   12        3.057866   1.000000
   13        3.310584   1.000000
   14        3.416290   1.000000
   15        4.514588   1.000000
   16        5.277221   1.000000
   17        7.295597   0.000000
   18        7.299412   0.000000
   19        7.796444   0.000000
   20        8.432765   0.000000
   21        8.728217   0.000000
 
  0.4000000E+00  0.2000000E+00  0.1000000E+00  0.4800000E-01
    1       -5.229078   1.000000
    2       -4.395822   1.000000
    3       -2.994780   1.000000
    4       -2.711333   1.000000
    5       -1.098123   1.000000
    6       -0.788815   1.000000
    7        0.899276   1.000000
    8        1.634649   1.000000
    9        1.889505   1.000000
   10        2.165183   1.000000
   11        2.988538   1.000000
   12        3.108824   1.000000
   13        3.178216   1.000000
   14        3.764506   1.000000
   15        4.038616   1.000000
   16        4.773472   1.000000
   17        7.554592   0.000000
   18        8.045893   0.000000
   19        8.187573   0.000000
   20        8.713090   0.000000
   21        9.209888   0.000000
 
  0.5000000E+00  0.2000000E+00  0.1000000E+00  0.2400000E-01
    1       -4.851064   1.000000
    2       -4.851064   1.000000
    3       -2.837352   1.000000
    4       -2.837352   1.000000
    5       -0.964525   1.000000
    6       -0.964525   1.000000
    7        1.539054   1.000000
    8        1.539054   1.000000
    9        1.720838   1.000000
   10        1.720838   1.000000
   11        3.038615   1.000000
   12        3.038615   1.000000
   13        3.566468   1.000000
   14        3.566468   1.000000
   15        4.230439   1.000000
   16        4.230439   1.000000
   17        7.861663   0.000000
   18        7.861663   0.000000
   19        9.005476   0.000000
   20        9.005476   0.000000
   21        9.776120   0.000000
 
  0.3000000E+00  0.3000000E+00  0.1000000E+00  0.2400000E-01
    1       -5.316603   1.000000
    2       -3.710067   1.000000
    3       -3.710067   1.000000
    4       -2.797050   1.000000
    5       -1.071069   1.000000
    6       -0.040705   1.000000
    7       -0.040705   1.000000
    8        1.593230   1.000000
    9        2.190981   1.000000
   10        2.406101   1.000000
   11        2.406101   1.000000
   12        3.417963   1.000000
   13        3.417963   1.000000
   14        3.620147   1.000000
   15        4.062625   1.000000
   16        5.328437   1.000000
   17        7.298579   0.000000
   18        7.995701   0.000000
   19        7.995701   0.000000
   20        8.566300   0.000000
   21        9.210557   0.000000
 
  0.4000000E+00  0.3000000E+00  0.1000000E+00  0.4800000E-01
    1       -5.025881   1.000000
    2       -4.216419   1.000000
    3       -3.501875   1.000000
    4       -3.014430   1.000000
    5       -0.893830   1.000000
    6       -0.347791   1.000000
    7        0.507239   1.000000
    8        1.607862   1.000000
    9        1.661535   1.000000
   10        2.109653   1.000000
   11        2.762975   1.000000
   12        3.484094   1.000000
   13        3.600526   1.000000
   14        3.691199   1.000000
   15        3.915515   1.000000
   16        5.014537   1.000000
   17        7.736945   0.000000
   18        8.254477   0.000000
   19        8.689335   0.000000
   20        8.903069   0.000000
   21        9.166235   0.000000
 
  0.5000000E+00  0.3000000E+00  0.1000000E+00  0.2400000E-01
    1       -4.657524   1.000000
    2       -4.657524   1.000000
    3       -3.261141   1.000000
    4       -3.261141   1.000000
    5       -0.644529   1.000000
    6       -0.644529   1.000000
    7        1.050117   1.000000
    8        1.050117   1.000000
    9        1.846818   1.000000
   10        1.846818   1.000000
   11        3.163119   1.000000
   12        3.163119   1.000000
   13        3.602648   1.000000
   14        3.602648   1.000000
   15        4.486211   1.000000
   16        4.486211   1.000000
   17        8.521728   0.000000
   18        8.521728   0.000000
   19        8.537613   0.000000
   20        8.537613   0.000000
   21        9.454110   0.000000
 
  0.4000000E+00  0.4000000E+00  0.1000000E+00  0.2400000E-01
    1       -4.745429   1.000000
    2       -3.974074   1.000000
    3       -3.974074   1.000000
    4       -3.350598   1.000000
    5       -0.620376   1.000000
    6        0.098358   1.000000
    7        0.098358   1.000000
    8        1.070095   1.000000
    9        1.815564   1.000000
   10        2.398964   1.000000
   11        2.398964   1.000000
   12        3.158636   1.000000
   13        4.042845   1.000000
   14        4.066856   1.000000
   15        4.066856   1.000000
   16        4.971724   1.000000
   17        7.785019   0.000000
   18        8.627164   0.000000
   19        9.008155   0.000000
   20        9.008352   0.000000
   21        9.170874   0.000000
 
  0.5000000E+00  0.4000000E+00  0.1000000E+00  0.2400000E-01
    1       -4.392381   1.000000
    2       -4.392381   1.000000
    3       -3.679637   1.000000
    4       -3.679637   1.000000
    5       -0.285286   1.000000
    6       -0.285286   1.000000
    7        0.567198   1.000000
    8        0.567198   1.000000
    9        2.071011   1.000000
   10        2.071011   1.000000
   11        2.751839   1.000000
   12        2.751839   1.000000
   13        4.146395   1.000000
   14        4.146395   1.000000
   15        4.615445   1.000000
   16        4.615445   1.000000
   17        8.247673   0.000000
   18        8.247673   0.000000
   19        8.696049   0.000000
   20        8.696049   0.000000
   21        9.458647   0.000000
 
  0.5000000E+00  0.5000000E+00  0.1000000E+00  0.6000000E-02
    1       -4.062673   1.000000
    2       -4.062673   1.000000
    3       -4.062673   1.000000
    4       -4.062673   1.000000
    5        0.118602   1.000000
    6        0.118602   1.000000
    7        0.118602   1.000000
    8        0.118602   1.000000
    9        2.378914   1.000000
   10        2.378914   1.000000
   11        2.378914   1.000000
   12        2.378914   1.000000
   13        4.516479   1.000000
   14        4.516479   1.000000
   15        4.516479   1.000000
   16        4.516479   1.000000
   17        8.294627   0.000000
   18        8.294627   0.000000
   19        8.294627   0.000000
   20        8.294627   0.000000
   21       10.374626   0.000000
 
  0.2000000E+00  0.2000000E+00  0.2000000E+00  0.8000000E-02
    1       -5.612827   1.000000
    2       -3.216653   1.000000
    3       -3.216653   1.000000
    4       -3.216653   1.000000
    5       -0.594794   1.000000
    6       -0.594794   1.000000
    7       -0.594794   1.000000
    8        2.147026   1.000000
    9        2.147026   1.000000
   10        2.147026   1.000000
   11        2.824322   1.000000
   12        3.404568   1.000000
   13        3.404568   1.000000
   14        3.404568   1.000000
   15        5.252902   1.000000
   16        5.252902   1.000000
   17        7.064524   0.000000
   18        7.064524   0.000000
   19        7.064524   0.000000
   20        8.058313   0.000000
   21        9.207707   0.000000
 
  0.3000000E+00  0.2000000E+00  0.2000000E+00  0.2400000E-01
    1       -5.401773   1.000000
    2       -3.781786   1.000000
    3       -3.134347   1.000000
    4       -3.134347   1.000000
    5       -0.759271   1.000000
    6       -0.759271   1.000000
    7       -0.020820   1.000000
    8        2.026991   1.000000
    9        2.026991   1.000000
   10        2.208220   1.000000
   11        2.608272   1.000000
   12        3.438293   1.000000
   13        3.438293   1.000000
   14        3.586828   1.000000
   15        4.883750   1.000000
   16        5.092101   1.000000
   17        7.302751   0.000000
   18        7.446258   0.000000
   19        7.446258   0.000000
   20        8.136334   0.000000
   21        9.058302   0.000000
 
  0.4000000E+00  0.2000000E+00  0.2000000E+00  0.2400000E-01
    1       -5.109080   1.000000
    2       -4.292952   1.000000
    3       -3.059568   1.000000
    4       -3.059568   1.000000
    5       -0.904074   1.000000
    6       -0.904074   1.000000
    7        0.524761   1.000000
    8        1.620606   1.000000
    9        1.997616   1.000000
   10        1.997616   1.000000
   11        3.208985   1.000000
   12        3.362330   1.000000
   13        3.362330   1.000000
   14        3.836198   1.000000
   15        4.501660   1.000000
   16        4.558918   1.000000
   17        7.610980   0.000000
   18        8.178184   0.000000
   19        8.178184   0.000000
   20        8.214905   0.000000
   21        9.228156   0.000000
 
  0.5000000E+00  0.2000000E+00  0.2000000E+00  0.1200000E-01
    1       -4.737884   1.000000
    2       -4.737884   1.000000
    3       -3.028543   1.000000
    4       -3.028543   1.000000
    5       -0.962371   1.000000
    6       -0.962371   1.000000
    7        1.063912   1.000000