unknown system                          
   1.00000000000000     
     2.312768   -0.000000   -0.000000
    -0.000000    2.312768    0.000000
     0.000000   -0.000000    2.312768
   Au   Cu
     1     3
Direct
  0.000000  0.000000  0.000000
  0.500000  0.500000  0.000000
  0.500000  0.000000  0.500000
  0.000000  0.500000  0.500000
 
   32   32   32
  262.68      252.94      227.89      196.25      164.38      133.35      102.23      72.299      47.332      30.211    
  20.329      14.555      11.202      9.4207      8.5027      8.0264      7.8675      8.0264      8.5027      9.4207    
  11.202      14.555      20.329      30.211      47.332      72.299      102.23      133.35      164.38      196.25    
  227.89      252.94      252.94      243.90      220.51      190.69      160.15      129.94      99.435      70.212    
  46.015      29.534      20.017      14.383      11.068      9.2436      8.2426      7.6916      7.5032      7.6916    
  8.2426      9.2436      11.068      14.383      20.017      29.534      46.015      70.212      99.435      129.94    
  160.15      190.69      220.51      243.90      227.89      220.51      201.18      175.73      148.41      120.25    
  91.504      64.346      42.368      27.690      19.182      13.994      10.889      9.0968      8.0399      7.4231    
  7.2079      7.4231      8.0399      9.0968      10.889      13.994      19.182      27.690      42.368      64.346    
  91.504      120.25      148.41      175.73      201.18      220.51      196.25      190.69      175.73      154.98    
  131.23      105.70      79.655      55.792      37.208      25.151      18.044      13.603      10.962      9.4496    
  8.5733      8.0725      7.8998      8.0725      8.5733      9.4496      10.962      13.603      18.044      25.151    
  37.208      55.792      79.655      105.70      131.23      154.98      175.73      190.69      164.38      160.15    
  148.41      131.23      110.56      88.007      65.607      46.063      31.598      22.467      16.837      13.296    
  11.219      10.059      9.4190      9.0734      8.9577      9.0734      9.4190      10.059      11.219      13.296    
  16.837      22.467      31.598      46.063      65.607      88.007      110.56      131.23      148.41      160.15    
  133.35      129.94      120.25      105.70      88.007      69.136      51.321      36.725      26.488      20.007    
  15.760      13.094      11.491      10.546      9.9863      9.6682      9.5603      9.6682      9.9863      10.546    
  11.491      13.094      15.760      20.007      26.488      36.725      51.321      69.136      88.007      105.70    
  120.25      129.94      102.23      99.435      91.504      79.655      65.607      51.321      38.679      28.978    
  22.381      17.927      14.979      13.145      12.038      11.383      10.999      10.790      10.721      10.790    
  10.999      11.383      12.038      13.145      14.979      17.927      22.381      28.978      38.679      51.321    
  65.607      79.655      91.504      99.435      72.299      70.212      64.346      55.792      46.063      36.725    
  28.978      23.277      19.214      16.401      14.672      13.781      13.510      13.671      14.047      14.403    
  14.547      14.403      14.047      13.671      13.510      13.781      14.672      16.401      19.214      23.277    
  28.978      36.725      46.063      55.792      64.346      70.212      47.332      46.015      42.368      37.208    
  31.598      26.488      22.381      19.214      16.929      15.562      15.089      15.490      16.712      18.552    
  20.572      22.159      22.763      22.159      20.572      18.552      16.712      15.490      15.089      15.562    
  16.929      19.214      22.381      26.488      31.598      37.208      42.368      46.015      30.211      29.534    
  27.690      25.151      22.467      20.007      17.927      16.401      15.562      15.569      16.664      19.101    
  22.937      27.785      32.707      36.426      37.816      36.426      32.707      27.785      22.937      19.101    
  16.664      15.569      15.562      16.401      17.927      20.007      22.467      25.151      27.690      29.534    
  20.329      20.017      19.182      18.044      16.837      15.760      14.979      14.672      15.089      16.664    
  20.052      25.868      34.171      44.374      58.511      73.481      80.085      73.481      58.511      44.374    
  34.171      25.868      20.052      16.664      15.089      14.672      14.979      15.760      16.837      18.044    
  19.182      20.017      14.555      14.383      13.994      13.603      13.296      13.094      13.145      13.781    
  15.490      19.101      25.868      36.840      54.987      95.113      156.47      214.64      238.69      214.64    
  156.47      95.113      54.987      36.840      25.868      19.101      15.490      13.781      13.145      13.094    
  13.296      13.603      13.994      14.383      11.202      11.068      10.889      10.962      11.219      11.491    
  12.038      13.510      16.712      22.937      34.171      54.987      114.89      234.59      391.45      527.42    
  581.43      527.42      391.45      234.59      114.89      54.987      34.171      22.937      16.712      13.510    
  12.038      11.491      11.219      10.962      10.889      11.068      9.4207      9.2436      9.0968      9.4496    
  10.059      10.546      11.383      13.671      18.552      27.785      44.374      95.113      234.59      473.36    
  757.74      991.02      1081.3      991.02      757.74      473.36      234.59      95.113      44.374      27.785    
  18.552      13.671      11.383      10.546      10.059      9.4496      9.0968      9.2436      8.5027      8.2426    
  8.0399      8.5733      9.4190      9.9863      10.999      14.047      20.572      32.707      58.511      156.47    
  391.45      757.74      1168.9      1494.0      1617.6      1494.0      1168.9      757.74      391.45      156.47    
  58.511      32.707      20.572      14.047      10.999      9.9863      9.4190      8.5733      8.0399      8.2426    
  8.0264      7.6916      7.4231      8.0725      9.0734      9.6682      10.790      14.403      22.159      36.426    
  73.481      214.64      527.42      991.02      1494.0      1882.9      2029.1      1882.9      1494.0      991.02    
  527.42      214.64      73.481      36.426      22.159      14.403      10.790      9.6682      9.0734      8.0725    
  7.4231      7.6916      7.8675      7.5032      7.2079      7.8998      8.9577      9.5603      10.721      14.547    
  22.763      37.816      80.085      238.69      581.43      1081.3      1617.6      2029.1      2183.1      2029.1    
  1617.6      1081.3      581.43      238.69      80.085      37.816      22.763      14.547      10.721      9.5603    
  8.9577      7.8998      7.2079      7.5032      8.0264      7.6916      7.4231      8.0725      9.0734      9.6682    
  10.790      14.403      22.159      36.426      73.481      214.64      527.42      991.02      1494.0      1882.9    
  2029.1      1882.9      1494.0      991.02      527.42      214.64      73.481      36.426      22.159      14.403    
  10.790      9.6682      9.0734      8.0725      7.4231      7.6916      8.5027      8.2426      8.0399      8.5733    
  9.4190      9.9863      10.999      14.047      20.572      32.707      58.511      156.47      391.45      757.74    
  1168.9      1494.0      1617.6      1494.0      1168.9      757.74      391.45      156.47      58.511      32.707    
  20.572      14.047      10.999      9.9863      9.4190      8.5733      8.0399      8.2426      9.4207      9.2436    
  9.0968      9.4496      10.059      10.546      11.383      13.671      18.552      27.785      44.374      95.113    
  234.59      473.36      757.74      991.02      1081.3      991.02      757.74      473.36      234.59      95.113    
  44.374      27.785      18.552      13.671      11.383      10.546      10.059      9.4496      9.0968      9.2436    
  11.202      11.068      10.889      10.962      11.219      11.491      12.038      13.510      16.712      22.937    
  34.171      54.987      114.89      234.59      391.45      527.42      581.43      527.42      391.45      234.59    
  114.89      54.987      34.171      22.937      16.712      13.510      12.038      11.491      11.219      10.962    
  10.889      11.068      14.555      14.383      13.994      13.603      13.296      13.094      13.145      13.781    
  15.490      19.101      25.868      36.840      54.987      95.113      156.47      214.64      238.69      214.64    
  156.47      95.113      54.987      36.840      25.868      19.101      15.490      13.781      13.145      13.094    
  13.296      13.603      13.994      14.383      20.329      20.017      19.182      18.044      16.837      15.760    
  14.979      14.672      15.089      16.664      20.052      25.868      34.171      44.374      58.511      73.481    
  80.085      73.481      58.511      44.374      34.171      25.868      20.052      16.664      15.089      14.672    
  14.979      15.760      16.837      18.044      19.182      20.017      30.211      29.534      27.690      25.151    
  22.467      20.007      17.927      16.401      15.562      15.569      16.664      19.101      22.937      27.785    
  32.707      36.426      37.816      36.426      32.707      27.785      22.937      19.101      16.664      15.569    
  15.562      16.401      17.927      20.007      22.467      25.151      27.690      29.534      47.332      46.015    
  42.368      37.208      31.598      26.488      22.381      19.214      16.929      15.562      15.089      15.490    
  16.712      18.552      20.572      22.159      22.763      22.159      20.572      18.552      16.712      15.490    
  15.089      15.562      16.929      19.214      22.381      26.488      31.598      37.208      42.368      46.015    
  72.299      70.212      64.346      55.792      46.063      36.725      28.978      23.277      19.214      16.401    
  14.672      13.781      13.510      13.671      14.047      14.403      14.547      14.403      14.047      13.671    
  13.510      13.781      14.672      16.401      19.214      23.277      28.978      36.725      46.063      55.792    
  64.346      70.212      102.23      99.435      91.504      79.655      65.607      51.321      38.679      28.978    
  22.381      17.927      14.979      13.145      12.038      11.383      10.999      10.790      10.721      10.790    
  10.999      11.383      12.038      13.145      14.979      17.927      22.381      28.978      38.679      51.321    
  65.607      79.655      91.504      99.435      133.35      129.94      120.25      105.70      88.007      69.136    
  51.321      36.725      26.488      20.007      15.760      13.094      11.491      10.546      9.9863      9.6682    
  9.5603      9.6682      9.9863      10.546      11.491      13.094      15.760      20.007      26.488      36.725    
  51.321      69.136      88.007      105.70      120.25      129.94      164.38      160.15      148.41      131.23    
  110.56      88.007      65.607      46.063      31.598      22.467      16.837      13.296      11.219      10.059    
  9.4190      9.0734      8.9577      9.0734      9.4190      10.059      11.219      13.296      16.837      22.467    
  31.598      46.063      65.607      88.007      110.56      131.23      148.41      160.15      196.25      190.69    
  175.73      154.98      131.23      105.70      79.655      55.792      37.208      25.151      18.044      13.603    
  10.962      9.4496      8.5733      8.0725      7.8998      8.0725      8.5733      9.4496      10.962      13.603    
  18.044      25.151      37.208      55.792      79.655      105.70      131.23      154.98      175.73      190.69    
  227.89      220.51      201.18      175.73      148.41      120.25      91.504      64.346      42.368      27.690    
  19.182      13.994      10.889      9.0968      8.0399      7.4231      7.2079      7.4231      8.0399      9.0968    
  10.889      13.994      19.182      27.690      42.368      64.346      91.504      120.25      148.41      175.73    
  201.18      220.51      252.94      243.90      220.51      190.69      160.15      129.94      99.435      70.212    
  46.015      29.534      20.017      14.383      11.068      9.2436      8.2426      7.6916      7.5032      7.6916    
  8.2426      9.2436      11.068      14.383      20.017      29.534      46.015      70.212      99.435      129.94    
  160.15      190.69      220.51      243.90      252.94      243.90      220.51      190.69      160.15      129.94    
  99.435      70.212      46.015      29.534      20.017      14.383      11.068      9.2436      8.2426      7.6916    
  7.5032      7.6916      8.2426      9.2436      11.068      14.383      20.017      29.534      46.015      70.212    
  99.435      129.94      160.15      190.69      220.51      243.90      243.90      235.47      213.60      185.41    
  156.07      126.61      96.710      68.186      44.745      28.884      19.716      14.221      10.950      9.0940    
  8.0243      7.4103      7.1970      7.4103      8.0243      9.0940      10.950      14.221      19.716      28.884    
  44.745      68.186      96.710      126.61      156.07      185.41      213.60      235.47      220.51      213.60    
  195.37      171.12      144.69      117.15      88.972      62.498      41.231      27.112      18.904      13.850    
  10.796      8.9939      7.8945      7.2362      7.0044      7.2362      7.8945      8.9939      10.796      13.850    
  18.904      27.112      41.231      62.498      88.972      117.15      144.69      171.12      195.37      213.60    
  190.69      185.41      171.12      151.10      127.94      102.90      77.418      54.209      36.262      24.670    
  17.793      13.470      10.879      9.3661      8.4630      7.9346      7.7507      7.9346      8.4630      9.3661    
  10.879      13.470      17.793      24.670      36.262      54.209      77.418      102.90      127.94      151.10    
  171.12      185.41      160.15      156.07      144.69      127.94      107.69      85.597      63.744      44.800    
  30.865      22.080      16.615      13.171      11.136      9.9801      9.3251      8.9623      8.8396      8.9623    
  9.3251      9.9801      11.136      13.171      16.615      22.080      30.865      44.800      63.744      85.597    
  107.69      127.94      144.69      156.07      129.94      126.61      117.15      102.90      85.597      67.182    
  49.884      35.794      25.951      19.690      15.567      12.978      11.414      10.484      9.9257      9.6055    
  9.4965      9.6055      9.9257      10.484      11.414      12.978      15.567      19.690      25.951      35.794    
  49.884      67.182      85.597      102.90      117.15      126.61      99.435      96.710      88.972      77.418    
  63.744      49.884      37.674      28.342      21.991      17.669      14.811      13.031      11.952      11.310    
  10.932      10.724      10.656      10.724      10.932      11.310      11.952      13.031      14.811      17.669    
  21.991      28.342      37.674      49.884      63.744      77.418      88.972      96.710      70.212      68.186    
  62.498      54.209      44.800      35.794      28.342      22.855      18.916      16.190      14.510      13.635    
  13.355      13.489      13.833      14.163      14.297      14.163      13.833      13.489      13.355      13.635    
  14.510      16.190      18.916      22.855      28.342      35.794      44.800      54.209      62.498      68.186    
  46.015      44.745      41.231      36.262      30.865      25.951      21.991      18.916      16.701      15.371    
  14.896      15.252      16.390      18.117      20.018      21.514      22.084      21.514      20.018      18.117    
  16.390      15.252      14.896      15.371      16.701      18.916      21.991      25.951      30.865      36.262    
  41.231      44.745      29.534      28.884      27.112      24.670      22.080      19.690      17.669      16.190    
  15.371      15.360      16.380      18.673      22.296      26.884      31.550      35.079      36.398      35.079    
  31.550      26.884      22.296      18.673      16.380      15.360      15.371      16.190      17.669      19.690    
  22.080      24.670      27.112      28.884      20.017      19.716      18.904      17.793      16.615      15.567    
  14.811      14.510      14.896      16.380      19.581      25.088      32.970      42.489      54.821      67.811    
  73.563      67.811      54.821      42.489      32.970      25.088      19.581      16.380      14.896      14.510    
  14.811      15.567      16.615      17.793      18.904      19.716      14.383      14.221      13.850      13.470    
  13.171      12.978      13.031      13.635      15.252      18.673      25.088      35.512      51.816      86.843    
  141.28      193.45      215.12      193.45      141.28      86.843      51.816      35.512      25.088      18.673    
  15.252      13.635      13.031      12.978      13.171      13.470      13.850      14.221      11.068      10.950    
  10.796      10.879      11.136      11.414      11.952      13.355      16.390      22.296      32.970      51.816    
  104.34      211.66      354.33      478.95      528.61      478.95      354.33      211.66      104.34      51.816    
  32.970      22.296      16.390      13.355      11.952      11.414      11.136      10.879      10.796      10.950    
  9.2436      9.0940      8.9939      9.3661      9.9801      10.484      11.310      13.489      18.117      26.884    
  42.489      86.843      211.66      429.55      691.99      908.61      992.71      908.61      691.99      429.55    
  211.66      86.843      42.489      26.884      18.117      13.489      11.310      10.484      9.9801      9.3661    
  8.9939      9.0940      8.2426      8.0243      7.8945      8.4630      9.3251      9.9257      10.932      13.833    
  20.018      31.550      54.821      141.28      354.33      691.99      1074.8      1379.3      1495.4      1379.3    
  1074.8      691.99      354.33      141.28      54.821      31.550      20.018      13.833      10.932      9.9257    
  9.3251      8.4630      7.8945      8.0243      7.6916      7.4103      7.2362      7.9346      8.9623      9.6055    
  10.724      14.163      21.514      35.079      67.811      193.45      478.95      908.61      1379.3      1745.4    
  1883.4      1745.4      1379.3      908.61      478.95      193.45      67.811      35.079      21.514      14.163    
  10.724      9.6055      8.9623      7.9346      7.2362      7.4103      7.5032      7.1970      7.0044      7.7507    
  8.8396      9.4965      10.656      14.297      22.084      36.398      73.563      215.12      528.61      992.71    
  1495.4      1883.4      2029.0      1883.4      1495.4      992.71      528.61      215.12      73.563      36.398    
  22.084      14.297      10.656      9.4965      8.8396      7.7507      7.0044      7.1970      7.6916      7.4103    
  7.2362      7.9346      8.9623      9.6055      10.724      14.163      21.514      35.079      67.811      193.45    
  478.95      908.61      1379.3      1745.4      1883.4      1745.4      1379.3      908.61      478.95      193.45    
  67.811      35.079      21.514      14.163      10.724      9.6055      8.9623      7.9346      7.2362      7.4103    
  8.2426      8.0243      7.8945      8.4630      9.3251      9.9257      10.932      13.833      20.018      31.550    
  54.821      141.28      354.33      691.99      1074.8      1379.3      1495.4      1379.3      1074.8      691.99    
  354.33      141.28      54.821      31.550      20.018      13.833      10.932      9.9257      9.3251      8.4630    
  7.8945      8.0243      9.2436      9.0940      8.9939      9.3661      9.9801      10.484      11.310      13.489    
  18.117      26.884      42.489      86.843      211.66      429.55      691.99      908.61      992.71      908.61    
  691.99      429.55      211.66      86.843      42.489      26.884      18.117      13.489      11.310      10.484    
  9.9801      9.3661      8.9939      9.0940      11.068      10.950      10.796      10.879      11.136      11.414    
  11.952      13.355      16.390      22.296      32.970      51.816      104.34      211.66      354.33      478.95    
  528.61      478.95      354.33      211.66      104.34      51.816      32.970      22.296      16.390      13.355    
  11.952      11.414      11.136      10.879      10.796      10.950      14.383      14.221      13.850      13.470    
  13.171      12.978      13.031      13.635      15.252      18.673      25.088      35.512      51.816      86.843    
  141.28      193.45      215.12      193.45      141.28      86.843      51.816      35.512      25.088      18.673    
  15.252      13.635      13.031      12.978      13.171      13.470      13.850      14.221      20.017      19.716    
  18.904      17.793      16.615      15.567      14.811      14.510      14.896      16.380      19.581      25.088    
  32.970      42.489      54.821      67.811      73.563      67.811      54.821      42.489      32.970      25.088    
  19.581      16.380      14.896      14.510      14.811      15.567      16.615      17.793      18.904      19.716    
  29.534      28.884      27.112      24.670      22.080      19.690      17.669      16.190      15.371      15.360    
  16.380      18.673      22.296      26.884      31.550      35.079      36.398      35.079      31.550      26.884    
  22.296      18.673      16.380      15.360      15.371      16.190      17.669      19.690      22.080      24.670    
  27.112      28.884      46.015      44.745      41.231      36.262      30.865      25.951      21.991      18.916    
  16.701      15.371      14.896      15.252      16.390      18.117      20.018      21.514      22.084      21.514    
  20.018      18.117      16.390      15.252      14.896      15.371      16.701      18.916      21.991      25.951    
  30.865      36.262      41.231      44.745      70.212      68.186      62.498      54.209      44.800      35.794    
  28.342      22.855      18.916      16.190      14.510      13.635      13.355      13.489      13.833      14.163    
  14.297      14.163      13.833      13.489      13.355      13.635      14.510      16.190      18.916      22.855    
  28.342      35.794      44.800      54.209      62.498      68.186      99.435      96.710      88.972      77.418    
  63.744      49.884      37.674      28.342      21.991      17.669      14.811      13.031      11.952      11.310    
  10.932      10.724      10.656      10.724      10.932      11.310      11.952      13.031      14.811      17.669    
  21.991      28.342      37.674      49.884      63.744      77.418      88.972      96.710      129.94      126.61    
  117.15      102.90      85.597      67.182      49.884      35.794      25.951      19.690      15.567      12.978    
  11.414      10.484      9.9257      9.6055      9.4965      9.6055      9.9257      10.484      11.414      12.978    
  15.567      19.690      25.951      35.794      49.884      67.182      85.597      102.90      117.15      126.61    
  160.15      156.07      144.69      127.94      107.69      85.597      63.744      44.800      30.865      22.080    
  16.615      13.171      11.136      9.9801      9.3251      8.9623      8.8396      8.9623      9.3251      9.9801    
  11.136      13.171      16.615      22.080      30.865      44.800      63.744      85.597      107.69      127.94    
  144.69      156.07      190.69      185.41      171.12      151.10      127.94      102.90      77.418      54.209    
  36.262      24.670      17.793      13.470      10.879      9.3661      8.4630      7.9346      7.7507      7.9346    
  8.4630      9.3661      10.879      13.470      17.793      24.670      36.262      54.209      77.418      102.90    
  127.94      151.10      171.12      185.41      220.51      213.60      195.37      171.12      144.69      117.15    
  88.972      62.498      41.231      27.112      18.904      13.850      10.796      8.9939      7.8945      7.2362    
  7.0044      7.2362      7.8945      8.9939      10.796      13.850      18.904      27.112      41.231      62.498    
  88.972      117.15      144.69      171.12      195.37      213.60      243.90      235.47      213.60      185.41    
  156.07      126.61      96.710      68.186      44.745      28.884      19.716      14.221      10.950      9.0940    
  8.0243      7.4103      7.1970      7.4103      8.0243      9.0940      10.950      14.221      19.716      28.884    
  44.745      68.186      96.710      126.61      156.07      185.41      213.60      235.47      227.89      220.51    
  201.18      175.73      148.41      120.25      91.504      64.346      42.368      27.690      19.182      13.994    
  10.889      9.0968      8.0399      7.4231      7.2079      7.4231      8.0399      9.0968      10.889      13.994    
  19.182      27.690      42.368      64.346      91.504      120.25      148.41      175.73      201.18      220.51    
  220.51      213.60      195.37      171.12      144.69      117.15      88.972      62.498      41.231      27.112    
  18.904      13.850      10.796      8.9939      7.8945      7.2362      7.0044      7.2362      7.8945      8.9939    
  10.796      13.850      18.904      27.112      41.231      62.498      88.972      117.15      144.69      171.12    
  195.37      213.60      201.18      195.37      179.82      158.44      134.22      108.30      81.789      57.312    
  38.087      25.534      18.147      13.508      10.674      8.9524      7.8613      7.1914      6.9536      7.1914    
  7.8613      8.9524      10.674      13.508      18.147      25.534      38.087      57.312      81.789      108.30    
  134.22      158.44      179.82      195.37      175.73      171.12      158.44      140.22      118.58      94.944    
  71.087      49.783      33.651      23.349      17.107      13.142      10.739      9.2980      8.4065      7.8721    
  7.6848      7.8721      8.4065      9.2980      10.739      13.142      17.107      23.349      33.651      49.783    
  71.087      94.944      118.58      140.22      158.44      171.12      148.41      144.69      134.22      118.58    
  99.506      78.745      58.499      41.286      28.843      21.005      16.006      12.848      10.959      9.8569    
  9.2090      8.8401      8.7142      8.8401      9.2090      9.8569      10.959      12.848      16.006      21.005    
  28.843      41.286      58.499      78.745      99.506      118.58      134.22      144.69      120.25      117.15    
  108.30      94.944      78.745      61.668      45.871      33.217      24.465      18.802      15.035      12.667    
  11.226      10.356      9.8257      9.5192      9.4148      9.5192      9.8257      10.356      11.226      12.667    
  15.035      18.802      24.465      33.217      45.871      61.668      78.745      94.944      108.30      117.15    
  91.504      88.972      81.789      71.087      58.499      45.871      34.890      26.585      20.893      16.946    
  14.342      12.716      11.724      11.128      10.775      10.580      10.517      10.580      10.775      11.128    
  11.724      12.716      14.342      16.946      20.893      26.585      34.890      45.871      58.499      71.087    
  81.789      88.972      64.346      62.498      57.312      49.783      41.286      33.217      26.585      21.674    
  18.077      15.594      14.056      13.232      12.935      13.006      13.269      13.533      13.641      13.533    
  13.269      13.006      12.935      13.232      14.056      15.594      18.077      21.674      26.585      33.217    
  41.286      49.783      57.312      62.498      42.368      41.231      38.087      33.651      28.843      24.465    
  20.893      18.077      16.059      14.836      14.361      14.603      15.519      16.946      18.533      19.787    
  20.265      19.787      18.533      16.946      15.519      14.603      14.361      14.836      16.059      18.077    
  20.893      24.465      28.843      33.651      38.087      41.231      27.690      27.112      25.534      23.349    
  21.005      18.802      16.946      15.594      14.836      14.778      15.600      17.509      20.559      24.448    
  28.419      31.431      32.558      31.431      28.419      24.448      20.559      17.509      15.600      14.778    
  14.836      15.594      16.946      18.802      21.005      23.349      25.534      27.112      19.182      18.904    
  18.147      17.107      16.006      15.035      14.342      14.056      14.361      15.600      18.300      22.972    
  29.706      37.789      46.421      54.901      58.659      54.901      46.421      37.789      29.706      22.972    
  18.300      15.600      14.361      14.056      14.342      15.035      16.006      17.107      18.147      18.904    
  13.994      13.850      13.508      13.142      12.848      12.667      12.716      13.232      14.603      17.509    
  22.972      31.899      44.524      67.660      104.98      141.99      157.61      141.99      104.98      67.660    
  44.524      31.899      22.972      17.509      14.603      13.232      12.716      12.667      12.848      13.142    
  13.508      13.850      10.889      10.796      10.674      10.739      10.959      11.226      11.724      12.935    
  15.519      20.559      29.706      44.524      79.568      155.60      261.46      356.29      394.49      356.29    