unknown system                          
   1.00000000000000     
     3.592598   -0.000000   -0.000000
    -0.000000    3.592598    0.000000
     0.000000   -0.000000    3.592598
   Au   Cu
     1     3
Direct
 -0.000000 -0.000000 -0.000000
  0.500000  0.500000 -0.000000
  0.500000  0.000000  0.500000
 -0.000000  0.500000  0.500000
 
   32   32   32
 0.22018135073E+03 0.21285241284E+03 0.19372507474E+03 0.16905035499E+03 0.14385495525E+03
 0.11950205313E+03 0.95202258944E+02 0.71083393009E+02 0.49360373249E+02 0.32757742954E+02
 0.22227411643E+02 0.16237785012E+02 0.12643402660E+02 0.10578959217E+02 0.94525835441E+01
 0.88998206053E+01 0.87348621677E+01 0.88998206053E+01 0.94525835441E+01 0.10578959217E+02
 0.12643402660E+02 0.16237785012E+02 0.22227411643E+02 0.32757742954E+02 0.49360373249E+02
 0.71083393009E+02 0.95202258944E+02 0.11950205313E+03 0.14385495525E+03 0.16905035499E+03
 0.19372507474E+03 0.21285241284E+03 0.21285241284E+03 0.20598378711E+03 0.18800526673E+03
 0.16464719854E+03 0.14049722555E+03 0.11680989414E+03 0.92970020369E+02 0.69321443712E+02
 0.48143169472E+02 0.32064418306E+02 0.21905859519E+02 0.16083382664E+02 0.12547307677E+02
 0.10479867237E+02 0.93155939231E+01 0.87214791394E+01 0.85389954854E+01 0.87214791394E+01
 0.93155939231E+01 0.10479867237E+02 0.12547307677E+02 0.16083382664E+02 0.21905859519E+02
 0.32064418306E+02 0.48143169472E+02 0.69321443712E+02 0.92970020369E+02 0.11680989414E+03
 0.14049722555E+03 0.16464719854E+03 0.18800526673E+03 0.20598378711E+03 0.19372507474E+03
 0.18800526673E+03 0.17288372472E+03 0.15277970014E+03 0.13120396739E+03 0.10919075494E+03
 0.86603829579E+02 0.64322276228E+02 0.44730227701E+02 0.30151336178E+02 0.21042299017E+02
 0.15708995920E+02 0.12403990723E+02 0.10424165765E+02 0.92618312534E+01 0.86393097894E+01
 0.84415116320E+01 0.86393097894E+01 0.92618312534E+01 0.10424165765E+02 0.12403990723E+02
 0.15708995920E+02 0.21042299017E+02 0.30151336178E+02 0.44730227701E+02 0.64322276228E+02
 0.86603829579E+02 0.10919075494E+03 0.13120396739E+03 0.15277970014E+03 0.17288372472E+03
 0.18800526673E+03 0.16905035499E+03 0.16464719854E+03 0.15277970014E+03 0.13634904224E+03
 0.11769472709E+03 0.97732142132E+02 0.76973375540E+02 0.56874703602E+02 0.39774762447E+02
 0.27459752733E+02 0.19874284490E+02 0.15278832024E+02 0.12419877210E+02 0.10715091209E+02
 0.97187238444E+01 0.91859961494E+01 0.90164915127E+01 0.91859961494E+01 0.97187238444E+01
 0.10715091209E+02 0.12419877210E+02 0.15278832024E+02 0.19874284490E+02 0.27459752733E+02
 0.39774762447E+02 0.56874703602E+02 0.76973375540E+02 0.97732142132E+02 0.11769472709E+03
 0.13634904224E+03 0.15277970014E+03 0.16464719854E+03 0.14385495525E+03 0.14049722555E+03
 0.13120396739E+03 0.11769472709E+03 0.10150850729E+03 0.83657173534E+02 0.65258844016E+02
 0.48097612805E+02 0.34172719001E+02 0.24549738864E+02 0.18641173587E+02 0.14895735276E+02
 0.12591186868E+02 0.11237935515E+02 0.10464105882E+02 0.10058425486E+02 0.99305428254E+01
 0.10058425486E+02 0.10464105882E+02 0.11237935515E+02 0.12591186868E+02 0.14895735276E+02
 0.18641173587E+02 0.24549738864E+02 0.34172719001E+02 0.48097612805E+02 0.65258844016E+02
 0.83657173534E+02 0.10150850729E+03 0.11769472709E+03 0.13120396739E+03 0.14049722555E+03
 0.11950205313E+03 0.11680989414E+03 0.10919075494E+03 0.97732142132E+02 0.83657173534E+02
 0.68196327237E+02 0.52817379416E+02 0.39231591334E+02 0.28824971380E+02 0.21906937223E+02
 0.17513468794E+02 0.14648672091E+02 0.12891332957E+02 0.11848010771E+02 0.11239047559E+02
 0.10911588358E+02 0.10806433057E+02 0.10911588358E+02 0.11239047559E+02 0.11848010771E+02
 0.12891332957E+02 0.14648672091E+02 0.17513468794E+02 0.21906937223E+02 0.28824971380E+02
 0.39231591334E+02 0.52817379416E+02 0.68196327237E+02 0.83657173534E+02 0.97732142132E+02
 0.10919075494E+03 0.11680989414E+03 0.95202258944E+02 0.92970020369E+02 0.86603829579E+02
 0.76973375540E+02 0.65258844016E+02 0.52817379416E+02 0.41100720543E+02 0.31400725127E+02
 0.24392063318E+02 0.19783998462E+02 0.16697926431E+02 0.14751866533E+02 0.13621330807E+02
 0.13009047407E+02 0.12698926283E+02 0.12556298937E+02 0.12514859886E+02 0.12556298937E+02
 0.12698926283E+02 0.13009047407E+02 0.13621330807E+02 0.14751866533E+02 0.16697926431E+02
 0.19783998462E+02 0.24392063318E+02 0.31400725127E+02 0.41100720543E+02 0.52817379416E+02
 0.65258844016E+02 0.76973375540E+02 0.86603829579E+02 0.92970020369E+02 0.71083393009E+02
 0.69321443712E+02 0.64322276228E+02 0.56874703602E+02 0.48097612805E+02 0.39231591334E+02
 0.31400725127E+02 0.25332023429E+02 0.21110739903E+02 0.18235868138E+02 0.16444433953E+02
 0.15573744368E+02 0.15399474341E+02 0.15682826889E+02 0.16166783947E+02 0.16592780604E+02
 0.16760197781E+02 0.16592780604E+02 0.16166783947E+02 0.15682826889E+02 0.15399474341E+02
 0.15573744368E+02 0.16444433953E+02 0.18235868138E+02 0.21110739903E+02 0.25332023429E+02
 0.31400725127E+02 0.39231591334E+02 0.48097612805E+02 0.56874703602E+02 0.64322276228E+02
 0.69321443712E+02 0.49360373249E+02 0.48143169472E+02 0.44730227701E+02 0.39774762447E+02
 0.34172719001E+02 0.28824971380E+02 0.24392063318E+02 0.21110739903E+02 0.18805469883E+02
 0.17440614539E+02 0.17057406349E+02 0.17620132324E+02 0.19007750406E+02 0.20950387540E+02
 0.22988626583E+02 0.24547241062E+02 0.25132149027E+02 0.24547241062E+02 0.22988626583E+02
 0.20950387540E+02 0.19007750406E+02 0.17620132324E+02 0.17057406349E+02 0.17440614539E+02
 0.18805469883E+02 0.21110739903E+02 0.24392063318E+02 0.28824971380E+02 0.34172719001E+02
 0.39774762447E+02 0.44730227701E+02 0.48143169472E+02 0.32757742954E+02 0.32064418306E+02
 0.30151336178E+02 0.27459752733E+02 0.24549738864E+02 0.21906937223E+02 0.19783998462E+02
 0.18235868138E+02 0.17440614539E+02 0.17608675536E+02 0.18951365939E+02 0.21616614988E+02
 0.25530061247E+02 0.30226634389E+02 0.34834850699E+02 0.38594112559E+02 0.40174026786E+02
 0.38594112559E+02 0.34834850699E+02 0.30226634389E+02 0.25530061247E+02 0.21616614988E+02
 0.18951365939E+02 0.17608675536E+02 0.17440614539E+02 0.18235868138E+02 0.19783998462E+02
 0.21906937223E+02 0.24549738864E+02 0.27459752733E+02 0.30151336178E+02 0.32064418306E+02
 0.22227411643E+02 0.21905859519E+02 0.21042299017E+02 0.19874284490E+02 0.18641173587E+02
 0.17513468794E+02 0.16697926431E+02 0.16444433953E+02 0.17057406349E+02 0.18951365939E+02
 0.22632264123E+02 0.28463951184E+02 0.36336088320E+02 0.48917269202E+02 0.68504217923E+02
 0.87835712802E+02 0.95989103374E+02 0.87835712802E+02 0.68504217923E+02 0.48917269202E+02
 0.36336088320E+02 0.28463951184E+02 0.22632264123E+02 0.18951365939E+02 0.17057406349E+02
 0.16444433953E+02 0.16697926431E+02 0.17513468794E+02 0.18641173587E+02 0.19874284490E+02
 0.21042299017E+02 0.21905859519E+02 0.16237785012E+02 0.16083382664E+02 0.15708995920E+02
 0.15278832024E+02 0.14895735276E+02 0.14648672091E+02 0.14751866533E+02 0.15573744368E+02
 0.17620132324E+02 0.21616614988E+02 0.28463951184E+02 0.39060157676E+02 0.63370816279E+02
 0.11316694979E+03 0.18041053275E+03 0.23974154594E+03 0.26349734152E+03 0.23974154594E+03
 0.18041053275E+03 0.11316694979E+03 0.63370816279E+02 0.39060157676E+02 0.28463951184E+02
 0.21616614988E+02 0.17620132324E+02 0.15573744368E+02 0.14751866533E+02 0.14648672091E+02
 0.14895735276E+02 0.15278832024E+02 0.15708995920E+02 0.16083382664E+02 0.12643402660E+02
 0.12547307677E+02 0.12403990723E+02 0.12419877210E+02 0.12591186868E+02 0.12891332957E+02
 0.13621330807E+02 0.15399474341E+02 0.19007750406E+02 0.25530061247E+02 0.36336088320E+02
 0.63370816279E+02 0.13525817352E+03 0.25849761814E+03 0.40604106184E+03 0.52764834786E+03
 0.57485594656E+03 0.52764834786E+03 0.40604106184E+03 0.25849761814E+03 0.13525817352E+03
 0.63370816279E+02 0.36336088320E+02 0.25530061247E+02 0.19007750406E+02 0.15399474341E+02
 0.13621330807E+02 0.12891332957E+02 0.12591186868E+02 0.12419877210E+02 0.12403990723E+02
 0.12547307677E+02 0.10578959217E+02 0.10479867237E+02 0.10424165765E+02 0.10715091209E+02
 0.11237935515E+02 0.11848010771E+02 0.13009047407E+02 0.15682826889E+02 0.20950387540E+02
 0.30226634389E+02 0.48917269202E+02 0.11316694979E+03 0.25849761814E+03 0.47928802230E+03
 0.72457567648E+03 0.91788936797E+03 0.99134796714E+03 0.91788936797E+03 0.72457567648E+03
 0.47928802230E+03 0.25849761814E+03 0.11316694979E+03 0.48917269202E+02 0.30226634389E+02
 0.20950387540E+02 0.15682826889E+02 0.13009047407E+02 0.11848010771E+02 0.11237935515E+02
 0.10715091209E+02 0.10424165765E+02 0.10479867237E+02 0.94525835441E+01 0.93155939231E+01
 0.92618312534E+01 0.97187238444E+01 0.10464105882E+02 0.11239047559E+02 0.12698926283E+02
 0.16166783947E+02 0.22988626583E+02 0.34834850699E+02 0.68504217923E+02 0.18041053275E+03
 0.40604106184E+03 0.72457567648E+03 0.10615782196E+04 0.13189120859E+04 0.14151607403E+04
 0.13189120859E+04 0.10615782196E+04 0.72457567648E+03 0.40604106184E+03 0.18041053275E+03
 0.68504217923E+02 0.34834850699E+02 0.22988626583E+02 0.16166783947E+02 0.12698926283E+02
 0.11239047559E+02 0.10464105882E+02 0.97187238444E+01 0.92618312534E+01 0.93155939231E+01
 0.88998206053E+01 0.87214791394E+01 0.86393097894E+01 0.91859961494E+01 0.10058425486E+02
 0.10911588358E+02 0.12556298937E+02 0.16592780604E+02 0.24547241062E+02 0.38594112559E+02
 0.87835712802E+02 0.23974154594E+03 0.52764834786E+03 0.91788936797E+03 0.13189120859E+04
 0.16190630177E+04 0.17301597316E+04 0.16190630177E+04 0.13189120859E+04 0.91788936797E+03
 0.52764834786E+03 0.23974154594E+03 0.87835712802E+02 0.38594112559E+02 0.24547241062E+02
 0.16592780604E+02 0.12556298937E+02 0.10911588358E+02 0.10058425486E+02 0.91859961494E+01
 0.86393097894E+01 0.87214791394E+01 0.87348621677E+01 0.85389954854E+01 0.84415116320E+01
 0.90164915127E+01 0.99305428254E+01 0.10806433057E+02 0.12514859886E+02 0.16760197781E+02
 0.25132149027E+02 0.40174026786E+02 0.95989103374E+02 0.26349734152E+03 0.57485594656E+03
 0.99134796714E+03 0.14151607403E+04 0.17301597316E+04 0.18463184963E+04 0.17301597316E+04
 0.14151607403E+04 0.99134796714E+03 0.57485594656E+03 0.26349734152E+03 0.95989103374E+02
 0.40174026786E+02 0.25132149027E+02 0.16760197781E+02 0.12514859886E+02 0.10806433057E+02
 0.99305428254E+01 0.90164915127E+01 0.84415116320E+01 0.85389954854E+01 0.88998206053E+01
 0.87214791394E+01 0.86393097894E+01 0.91859961494E+01 0.10058425486E+02 0.10911588358E+02
 0.12556298937E+02 0.16592780604E+02 0.24547241062E+02 0.38594112559E+02 0.87835712802E+02
 0.23974154594E+03 0.52764834786E+03 0.91788936797E+03 0.13189120859E+04 0.16190630177E+04
 0.17301597316E+04 0.16190630177E+04 0.13189120859E+04 0.91788936797E+03 0.52764834786E+03
 0.23974154594E+03 0.87835712802E+02 0.38594112559E+02 0.24547241062E+02 0.16592780604E+02
 0.12556298937E+02 0.10911588358E+02 0.10058425486E+02 0.91859961494E+01 0.86393097894E+01
 0.87214791394E+01 0.94525835441E+01 0.93155939231E+01 0.92618312534E+01 0.97187238444E+01
 0.10464105882E+02 0.11239047559E+02 0.12698926283E+02 0.16166783947E+02 0.22988626583E+02
 0.34834850699E+02 0.68504217923E+02 0.18041053275E+03 0.40604106184E+03 0.72457567648E+03
 0.10615782196E+04 0.13189120859E+04 0.14151607403E+04 0.13189120859E+04 0.10615782196E+04
 0.72457567648E+03 0.40604106184E+03 0.18041053275E+03 0.68504217923E+02 0.34834850699E+02
 0.22988626583E+02 0.16166783947E+02 0.12698926283E+02 0.11239047559E+02 0.10464105882E+02
 0.97187238444E+01 0.92618312534E+01 0.93155939231E+01 0.10578959217E+02 0.10479867237E+02
 0.10424165765E+02 0.10715091209E+02 0.11237935515E+02 0.11848010771E+02 0.13009047407E+02
 0.15682826889E+02 0.20950387540E+02 0.30226634389E+02 0.48917269202E+02 0.11316694979E+03
 0.25849761814E+03 0.47928802230E+03 0.72457567648E+03 0.91788936797E+03 0.99134796714E+03
 0.91788936797E+03 0.72457567648E+03 0.47928802230E+03 0.25849761814E+03 0.11316694979E+03
 0.48917269202E+02 0.30226634389E+02 0.20950387540E+02 0.15682826889E+02 0.13009047407E+02
 0.11848010771E+02 0.11237935515E+02 0.10715091209E+02 0.10424165765E+02 0.10479867237E+02
 0.12643402660E+02 0.12547307677E+02 0.12403990723E+02 0.12419877210E+02 0.12591186868E+02
 0.12891332957E+02 0.13621330807E+02 0.15399474341E+02 0.19007750406E+02 0.25530061247E+02
 0.36336088320E+02 0.63370816279E+02 0.13525817352E+03 0.25849761814E+03 0.40604106184E+03
 0.52764834786E+03 0.57485594656E+03 0.52764834786E+03 0.40604106184E+03 0.25849761814E+03
 0.13525817352E+03 0.63370816279E+02 0.36336088320E+02 0.25530061247E+02 0.19007750406E+02
 0.15399474341E+02 0.13621330807E+02 0.12891332957E+02 0.12591186868E+02 0.12419877210E+02
 0.12403990723E+02 0.12547307677E+02 0.16237785012E+02 0.16083382664E+02 0.15708995920E+02
 0.15278832024E+02 0.14895735276E+02 0.14648672091E+02 0.14751866533E+02 0.15573744368E+02
 0.17620132324E+02 0.21616614988E+02 0.28463951184E+02 0.39060157676E+02 0.63370816279E+02
 0.11316694979E+03 0.18041053275E+03 0.23974154594E+03 0.26349734152E+03 0.23974154594E+03
 0.18041053275E+03 0.11316694979E+03 0.63370816279E+02 0.39060157676E+02 0.28463951184E+02
 0.21616614988E+02 0.17620132324E+02 0.15573744368E+02 0.14751866533E+02 0.14648672091E+02
 0.14895735276E+02 0.15278832024E+02 0.15708995920E+02 0.16083382664E+02 0.22227411643E+02
 0.21905859519E+02 0.21042299017E+02 0.19874284490E+02 0.18641173587E+02 0.17513468794E+02
 0.16697926431E+02 0.16444433953E+02 0.17057406349E+02 0.18951365939E+02 0.22632264123E+02
 0.28463951184E+02 0.36336088320E+02 0.48917269202E+02 0.68504217923E+02 0.87835712802E+02
 0.95989103374E+02 0.87835712802E+02 0.68504217923E+02 0.48917269202E+02 0.36336088320E+02
 0.28463951184E+02 0.22632264123E+02 0.18951365939E+02 0.17057406349E+02 0.16444433953E+02
 0.16697926431E+02 0.17513468794E+02 0.18641173587E+02 0.19874284490E+02 0.21042299017E+02
 0.21905859519E+02 0.32757742954E+02 0.32064418306E+02 0.30151336178E+02 0.27459752733E+02
 0.24549738864E+02 0.21906937223E+02 0.19783998462E+02 0.18235868138E+02 0.17440614539E+02
 0.17608675536E+02 0.18951365939E+02 0.21616614988E+02 0.25530061247E+02 0.30226634389E+02
 0.34834850699E+02 0.38594112559E+02 0.40174026786E+02 0.38594112559E+02 0.34834850699E+02
 0.30226634389E+02 0.25530061247E+02 0.21616614988E+02 0.18951365939E+02 0.17608675536E+02
 0.17440614539E+02 0.18235868138E+02 0.19783998462E+02 0.21906937223E+02 0.24549738864E+02
 0.27459752733E+02 0.30151336178E+02 0.32064418306E+02 0.49360373249E+02 0.48143169472E+02
 0.44730227701E+02 0.39774762447E+02 0.34172719001E+02 0.28824971380E+02 0.24392063318E+02
 0.21110739903E+02 0.18805469883E+02 0.17440614539E+02 0.17057406349E+02 0.17620132324E+02
 0.19007750406E+02 0.20950387540E+02 0.22988626583E+02 0.24547241062E+02 0.25132149027E+02
 0.24547241062E+02 0.22988626583E+02 0.20950387540E+02 0.19007750406E+02 0.17620132324E+02
 0.17057406349E+02 0.17440614539E+02 0.18805469883E+02 0.21110739903E+02 0.24392063318E+02
 0.28824971380E+02 0.34172719001E+02 0.39774762447E+02 0.44730227701E+02 0.48143169472E+02
 0.71083393009E+02 0.69321443712E+02 0.64322276228E+02 0.56874703602E+02 0.48097612805E+02
 0.39231591334E+02 0.31400725127E+02 0.25332023429E+02 0.21110739903E+02 0.18235868138E+02
 0.16444433953E+02 0.15573744368E+02 0.15399474341E+02 0.15682826889E+02 0.16166783947E+02
 0.16592780604E+02 0.16760197781E+02 0.16592780604E+02 0.16166783947E+02 0.15682826889E+02
 0.15399474341E+02 0.15573744368E+02 0.16444433953E+02 0.18235868138E+02 0.21110739903E+02
 0.25332023429E+02 0.31400725127E+02 0.39231591334E+02 0.48097612805E+02 0.56874703602E+02
 0.64322276228E+02 0.69321443712E+02 0.95202258944E+02 0.92970020369E+02 0.86603829579E+02
 0.76973375540E+02 0.65258844016E+02 0.52817379416E+02 0.41100720543E+02 0.31400725127E+02
 0.24392063318E+02 0.19783998462E+02 0.16697926431E+02 0.14751866533E+02 0.13621330807E+02
 0.13009047407E+02 0.12698926283E+02 0.12556298937E+02 0.12514859886E+02 0.12556298937E+02
 0.12698926283E+02 0.13009047407E+02 0.13621330807E+02 0.14751866533E+02 0.16697926431E+02
 0.19783998462E+02 0.24392063318E+02 0.31400725127E+02 0.41100720543E+02 0.52817379416E+02
 0.65258844016E+02 0.76973375540E+02 0.86603829579E+02 0.92970020369E+02 0.11950205313E+03
 0.11680989414E+03 0.10919075494E+03 0.97732142132E+02 0.83657173534E+02 0.68196327237E+02
 0.52817379416E+02 0.39231591334E+02 0.28824971380E+02 0.21906937223E+02 0.17513468794E+02
 0.14648672091E+02 0.12891332957E+02 0.11848010771E+02 0.11239047559E+02 0.10911588358E+02
 0.10806433057E+02 0.10911588358E+02 0.11239047559E+02 0.11848010771E+02 0.12891332957E+02
 0.14648672091E+02 0.17513468794E+02 0.21906937223E+02 0.28824971380E+02 0.39231591334E+02
 0.52817379416E+02 0.68196327237E+02 0.83657173534E+02 0.97732142132E+02 0.10919075494E+03
 0.11680989414E+03 0.14385495525E+03 0.14049722555E+03 0.13120396739E+03 0.11769472709E+03
 0.10150850729E+03 0.83657173534E+02 0.65258844016E+02 0.48097612805E+02 0.34172719001E+02
 0.24549738864E+02 0.18641173587E+02 0.14895735276E+02 0.12591186868E+02 0.11237935515E+02
 0.10464105882E+02 0.10058425486E+02 0.99305428254E+01 0.10058425486E+02 0.10464105882E+02
 0.11237935515E+02 0.12591186868E+02 0.14895735276E+02 0.18641173587E+02 0.24549738864E+02
 0.34172719001E+02 0.48097612805E+02 0.65258844016E+02 0.83657173534E+02 0.10150850729E+03
 0.11769472709E+03 0.13120396739E+03 0.14049722555E+03 0.16905035499E+03 0.16464719854E+03
 0.15277970014E+03 0.13634904224E+03 0.11769472709E+03 0.97732142132E+02 0.76973375540E+02
 0.56874703602E+02 0.39774762447E+02 0.27459752733E+02 0.19874284490E+02 0.15278832024E+02
 0.12419877210E+02 0.10715091209E+02 0.97187238444E+01 0.91859961494E+01 0.90164915127E+01
 0.91859961494E+01 0.97187238444E+01 0.10715091209E+02 0.12419877210E+02 0.15278832024E+02
 0.19874284490E+02 0.27459752733E+02 0.39774762447E+02 0.56874703602E+02 0.76973375540E+02
 0.97732142132E+02 0.11769472709E+03 0.13634904224E+03 0.15277970014E+03 0.16464719854E+03
 0.19372507474E+03 0.18800526673E+03 0.17288372472E+03 0.15277970014E+03 0.13120396739E+03
 0.10919075494E+03 0.86603829579E+02 0.64322276228E+02 0.44730227701E+02 0.30151336178E+02
 0.21042299017E+02 0.15708995920E+02 0.12403990723E+02 0.10424165765E+02 0.92618312534E+01
 0.86393097894E+01 0.84415116320E+01 0.86393097894E+01 0.92618312534E+01 0.10424165765E+02
 0.12403990723E+02 0.15708995920E+02 0.21042299017E+02 0.30151336178E+02 0.44730227701E+02
 0.64322276228E+02 0.86603829579E+02 0.10919075494E+03 0.13120396739E+03 0.15277970014E+03
 0.17288372472E+03 0.18800526673E+03 0.21285241284E+03 0.20598378711E+03 0.18800526673E+03
 0.16464719854E+03 0.14049722555E+03 0.11680989414E+03 0.92970020369E+02 0.69321443712E+02
 0.48143169472E+02 0.32064418306E+02 0.21905859519E+02 0.16083382664E+02 0.12547307677E+02
 0.10479867237E+02 0.93155939231E+01 0.87214791394E+01 0.85389954854E+01 0.87214791394E+01
 0.93155939231E+01 0.10479867237E+02 0.12547307677E+02 0.16083382664E+02 0.21905859519E+02
 0.32064418306E+02 0.48143169472E+02 0.69321443712E+02 0.92970020369E+02 0.11680989414E+03
 0.14049722555E+03 0.16464719854E+03 0.18800526673E+03 0.20598378711E+03 0.21285241284E+03
 0.20598378711E+03 0.18800526673E+03 0.16464719854E+03 0.14049722555E+03 0.11680989414E+03
 0.92970020369E+02 0.69321443712E+02 0.48143169472E+02 0.32064418306E+02 0.21905859519E+02
 0.16083382664E+02 0.12547307677E+02 0.10479867237E+02 0.93155939231E+01 0.87214791394E+01
 0.85389954854E+01 0.87214791394E+01 0.93155939231E+01 0.10479867237E+02 0.12547307677E+02
 0.16083382664E+02 0.21905859519E+02 0.32064418306E+02 0.48143169472E+02 0.69321443712E+02
 0.92970020369E+02 0.11680989414E+03 0.14049722555E+03 0.16464719854E+03 0.18800526673E+03
 0.20598378711E+03 0.20598378711E+03 0.19953684574E+03 0.18260913709E+03 0.16045240580E+03
 0.13725569155E+03 0.11418267949E+03 0.90784653685E+02 0.67601728880E+02 0.46961714679E+02
 0.31395047554E+02 0.21596066464E+02 0.15935361438E+02 0.12460875393E+02 0.10397174051E+02
 0.92033540582E+01 0.85748471605E+01 0.83775556665E+01 0.85748471605E+01 0.92033540582E+01
 0.10397174051E+02 0.12460875393E+02 0.15935361438E+02 0.21596066464E+02 0.31395047554E+02
 0.46961714679E+02 0.67601728880E+02 0.90784653685E+02 0.11418267949E+03 0.13725569155E+03
 0.16045240580E+03 0.18260913709E+03 0.19953684574E+03 0.18800526673E+03 0.18260913709E+03
 0.16829097886E+03 0.14910043065E+03 0.12825269046E+03 0.10673353752E+03 0.84549543525E+02
 0.62723512065E+02 0.43650142327E+02 0.29547999432E+02 0.20762125803E+02 0.15573780676E+02
 0.12333853287E+02 0.10368790704E+02 0.91917692099E+01 0.85476219563E+01 0.83400618081E+01
 0.85476219563E+01 0.91917692099E+01 0.10368790704E+02 0.12333853287E+02 0.15573780676E+02
 0.20762125803E+02 0.29547999432E+02 0.43650142327E+02 0.62723512065E+02 0.84549543525E+02
 0.10673353752E+03 0.12825269046E+03 0.14910043065E+03 0.16829097886E+03 0.18260913709E+03
 0.16464719854E+03 0.16045240580E+03 0.14910043065E+03 0.13325685780E+03 0.11508748619E+03
 0.95501661604E+02 0.75115676294E+02 0.55461584078E+02 0.38845778535E+02 0.26949348551E+02
 0.19629175426E+02 0.15153430603E+02 0.12355324272E+02 0.10668882565E+02 0.96660258870E+01
 0.91197010957E+01 0.89437595560E+01 0.91197010957E+01 0.96660258870E+01 0.10668882565E+02
 0.12355324272E+02 0.15153430603E+02 0.19629175426E+02 0.26949348551E+02 0.38845778535E+02
 0.55461584078E+02 0.75115676294E+02 0.95501661604E+02 0.11508748619E+03 0.13325685780E+03
 0.14910043065E+03 0.16045240580E+03 0.14049722555E+03 0.13725569155E+03 0.12825269046E+03
 0.11508748619E+03 0.99222681085E+02 0.81685583525E+02 0.63651287348E+02 0.46917438377E+02
 0.33422291572E+02 0.24139576495E+02 0.18424864142E+02 0.14776540365E+02 0.12524125126E+02
 0.11188986563E+02 0.10413653647E+02 0.10000177423E+02 0.98683782182E+01 0.10000177423E+02
 0.10413653647E+02 0.11188986563E+02 0.12524125126E+02 0.14776540365E+02 0.18424864142E+02
 0.24139576495E+02 0.33422291572E+02 0.46917438377E+02 0.63651287348E+02 0.81685583525E+02
 0.99222681085E+02 0.11508748619E+03 0.12825269046E+03 0.13725569155E+03 0.11680989414E+03
 0.11418267949E+03 0.10673353752E+03 0.95501661604E+02 0.81685583525E+02 0.66527450260E+02
 0.51507646125E+02 0.38310350478E+02 0.28254897665E+02 0.21584556688E+02 0.17319836161E+02
 0.14533530054E+02 0.12819998946E+02 0.11796270704E+02 0.11192953525E+02 0.10865241272E+02
 0.10759347025E+02 0.10865241272E+02 0.11192953525E+02 0.11796270704E+02 0.12819998946E+02
 0.14533530054E+02 0.17319836161E+02 0.21584556688E+02 0.28254897665E+02 0.38310350478E+02
 0.51507646125E+02 0.66527450260E+02 0.81685583525E+02 0.95501661604E+02 0.10673353752E+03
 0.11418267949E+03 0.92970020369E+02 0.90784653685E+02 0.84549543525E+02 0.75115676294E+02
 0.63651287348E+02 0.51507646125E+02 0.40118742680E+02 0.30734838718E+02 0.23977491795E+02
 0.19519716867E+02 0.16520172334E+02 0.14628268182E+02 0.13525633713E+02 0.12924211316E+02
 0.12615855352E+02 0.12471801096E+02 0.12429460497E+02 0.12471801096E+02 0.12615855352E+02
 0.12924211316E+02 0.13525633713E+02 0.14628268182E+02 0.16520172334E+02 0.19519716867E+02
 0.23977491795E+02 0.30734838718E+02 0.40118742680E+02 0.51507646125E+02 0.63651287348E+02
 0.75115676294E+02 0.84549543525E+02 0.90784653685E+02 0.69321443712E+02 0.67601728880E+02
 0.62723512065E+02 0.55461584078E+02 0.46917438377E+02 0.38310350478E+02 0.30734838718E+02
 0.24881347511E+02 0.20803072525E+02 0.18006801804E+02 0.16262780478E+02 0.15407852780E+02
 0.15223441150E+02 0.15479792226E+02 0.15931115590E+02 0.16330930881E+02 0.16488362823E+02
 0.16330930881E+02 0.15931115590E+02 0.15479792226E+02 0.15223441150E+02 0.15407852780E+02
 0.16262780478E+02 0.18006801804E+02 0.20803072525E+02 0.24881347511E+02 0.30734838718E+02
 0.38310350478E+02 0.46917438377E+02 0.55461584078E+02 0.62723512065E+02 0.67601728880E+02
 0.48143169472E+02 0.46961714679E+02 0.43650142327E+02 0.38845778535E+02 0.33422291572E+02
 0.28254897665E+02 0.23977491795E+02 0.20803072525E+02 0.18556994341E+02 0.17223483181E+02
 0.16835247104E+02 0.17353806691E+02 0.18662043029E+02 0.20502335441E+02 0.22436822101E+02
 0.23917359600E+02 0.24473157830E+02 0.23917359600E+02 0.22436822101E+02 0.20502335441E+02
 0.18662043029E+02 0.17353806691E+02 0.16835247104E+02 0.17223483181E+02 0.18556994341E+02
 0.20803072525E+02 0.23977491795E+02 0.28254897665E+02 0.33422291572E+02 0.38845778535E+02
 0.43650142327E+02 0.46961714679E+02 0.32064418306E+02 0.31395047554E+02 0.29547999432E+02
 0.26949348551E+02 0.24139576495E+02 0.21584556688E+02 0.19519716867E+02 0.18006801804E+02
 0.17223483181E+02 0.17365581568E+02 0.18631231153E+02 0.21160867038E+02 0.24885339896E+02
 0.29363286407E+02 0.33749223643E+02 0.37166728640E+02 0.38569179220E+02 0.37166728640E+02
 0.33749223643E+02 0.29363286407E+02 0.24885339896E+02 0.21160867038E+02 0.18631231153E+02
 0.17365581568E+02 0.17223483181E+02 0.18006801804E+02 0.19519716867E+02 0.21584556688E+02
 0.24139576495E+02 0.26949348551E+02 0.29547999432E+02 0.31395047554E+02 0.21905859519E+02
 0.21596066464E+02 0.20762125803E+02 0.19629175426E+02 0.18424864142E+02 0.17319836161E+02
 0.16520172334E+02 0.16262780478E+02 0.16835247104E+02 0.18631231153E+02 0.22133407215E+02
 0.27693564106E+02 0.35170988079E+02 0.46303515777E+02 0.63529783710E+02 0.80688358232E+02
 0.87962112243E+02 0.80688358232E+02 0.63529783710E+02 0.46303515777E+02 0.35170988079E+02
 0.27693564106E+02 0.22133407215E+02 0.18631231153E+02 0.16835247104E+02 0.16262780478E+02
 0.16520172334E+02 0.17319836161E+02 0.18424864142E+02 0.19629175426E+02 0.20762125803E+02
 0.21596066464E+02 0.16083382664E+02 0.15935361438E+02 0.15573780676E+02 0.15153430603E+02
 0.14776540365E+02 0.14533530054E+02 0.14628268182E+02 0.15407852780E+02 0.17353806691E+02
 0.21160867038E+02 0.27693564106E+02 0.37647661143E+02 0.59051094122E+02 0.10349791612E+03
 0.16438765182E+03 0.21854368818E+03 0.24030306739E+03 0.21854368818E+03 0.16438765182E+03
 0.10349791612E+03 0.59051094122E+02 0.37647661143E+02 0.27693564106E+02 0.21160867038E+02
 0.17353806691E+02 0.15407852780E+02 0.14628268182E+02 0.14533530054E+02 0.14776540365E+02
 0.15153430603E+02 0.15573780676E+02 0.15935361438E+02 0.12547307677E+02 0.12460875393E+02
 0.12333853287E+02 0.12355324272E+02 0.12524125126E+02 0.12819998946E+02 0.13525633713E+02
 0.15223441150E+02 0.18662043029E+02 0.24885339896E+02 0.35170988079E+02 0.59051094122E+02
 0.12348082904E+03 0.23597247901E+03 0.37208474831E+03 0.48491972172E+03 0.52883418091E+03
 0.48491972172E+03 0.37208474831E+03 0.23597247901E+03 0.12348082904E+03 0.59051094122E+02
 0.35170988079E+02 0.24885339896E+02 0.18662043029E+02 0.15223441150E+02 0.13525633713E+02
 0.12819998946E+02 0.12524125126E+02 0.12355324272E+02 0.12333853287E+02 0.12460875393E+02
 0.10479867237E+02 0.10397174051E+02 0.10368790704E+02 0.10668882565E+02 0.11188986563E+02
 0.11796270704E+02 0.12924211316E+02 0.15479792226E+02 0.20502335441E+02 0.29363286407E+02
 0.46303515777E+02 0.10349791612E+03 0.23597247901E+03 0.44020341434E+03 0.66907429788E+03
 0.85035502590E+03 0.91940090797E+03 0.85035502590E+03 0.66907429788E+03 0.44020341434E+03
 0.23597247901E+03 0.10349791612E+03 0.46303515777E+02 0.29363286407E+02 0.20502335441E+02
 0.15479792226E+02 0.12924211316E+02 0.11796270704E+02 0.11188986563E+02 0.10668882565E+02
 0.10368790704E+02 0.10397174051E+02 0.93155939231E+01 0.92033540582E+01 0.91917692099E+01
 0.96660258870E+01 0.10413653647E+02 0.11192953525E+02 0.12615855352E+02 0.15931115590E+02
 0.22436822101E+02 0.33749223643E+02 0.63529783710E+02 0.16438765182E+03 0.37208474831E+03
 0.66907429788E+03 0.98583621736E+03 0.12289225195E+04 0.13200620896E+04 0.12289225195E+04
 0.98583621736E+03 0.66907429788E+03 0.37208474831E+03 0.16438765182E+03 0.63529783710E+02
 0.33749223643E+02 0.22436822101E+02 0.15931115590E+02 0.12615855352E+02 0.11192953525E+02
 0.10413653647E+02 0.96660258870E+01 0.91917692099E+01 0.92033540582E+01 0.87214791394E+01
 0.85748471605E+01 0.85476219563E+01 0.91197010957E+01 0.10000177423E+02 0.10865241272E+02
 0.12471801096E+02 0.16330930881E+02 0.23917359600E+02 0.37166728640E+02 0.80688358232E+02
 0.21854368818E+03 0.48491972172E+03 0.85035502590E+03 0.12289225195E+04 0.15137465138E+04
 0.16194461170E+04 0.15137465138E+04 0.12289225195E+04 0.85035502590E+03 0.48491972172E+03
 0.21854368818E+03 0.80688358232E+02 0.37166728640E+02 0.23917359600E+02 0.16330930881E+02
 0.12471801096E+02 0.10865241272E+02 0.10000177423E+02 0.91197010957E+01 0.85476219563E+01
 0.85748471605E+01 0.85389954854E+01 0.83775556665E+01 0.83400618081E+01 0.89437595560E+01
 0.98683782182E+01 0.10759347025E+02 0.12429460497E+02 0.16488362823E+02 0.24473157830E+02
 0.38569179220E+02 0.87962112243E+02 0.24030306739E+03 0.52883418091E+03 0.91940090797E+03
 0.13200620896E+04 0.16194461170E+04 0.17301463210E+04 0.16194461170E+04 0.13200620896E+04
 0.91940090797E+03 0.52883418091E+03 0.24030306739E+03 0.87962112243E+02 0.38569179220E+02
 0.24473157830E+02 0.16488362823E+02 0.12429460497E+02 0.10759347025E+02 0.98683782182E+01
 0.89437595560E+01 0.83400618081E+01 0.83775556665E+01 0.87214791394E+01 0.85748471605E+01
 0.85476219563E+01 0.91197010957E+01 0.10000177423E+02 0.10865241272E+02 0.12471801096E+02
 0.16330930881E+02 0.23917359600E+02 0.37166728640E+02 0.80688358232E+02 0.21854368818E+03
 0.48491972172E+03 0.85035502590E+03 0.12289225195E+04 0.15137465138E+04 0.16194461170E+04
 0.15137465138E+04 0.12289225195E+04 0.85035502590E+03 0.48491972172E+03 0.21854368818E+03
 0.80688358232E+02 0.37166728640E+02 0.23917359600E+02 0.16330930881E+02 0.12471801096E+02
 0.10865241272E+02 0.10000177423E+02 0.91197010957E+01 0.85476219563E+01 0.85748471605E+01
 0.93155939231E+01 0.92033540582E+01 0.91917692099E+01 0.96660258870E+01 0.10413653647E+02
 0.11192953525E+02 0.12615855352E+02 0.15931115590E+02 0.22436822101E+02 0.33749223643E+02
 0.63529783710E+02 0.16438765182E+03 0.37208474831E+03 0.66907429788E+03 0.98583621736E+03
 0.12289225195E+04 0.13200620896E+04 0.12289225195E+04 0.98583621736E+03 0.66907429788E+03
 0.37208474831E+03 0.16438765182E+03 0.63529783710E+02 0.33749223643E+02 0.22436822101E+02