   4   4   0   0
  0.1371800E+02  0.3800000E-09  0.3800000E-09  0.3800000E-09  0.5000000E-15
  1.000000000000000E-004
  CAR 
 unknown system                          
     25.30941088    -66.06423254  301      8.22748634      1.00000000
    -66.064  0.0000E+00  0.0000E+00
    -65.760  0.0000E+00  0.0000E+00
    -65.455  0.0000E+00  0.0000E+00
    -65.150  0.0000E+00  0.0000E+00
    -64.846  0.0000E+00  0.0000E+00
    -64.541  0.0000E+00  0.0000E+00
    -64.237  0.0000E+00  0.0000E+00
    -63.932  0.0000E+00  0.0000E+00
    -63.628 -0.1346E-32 -0.4101E-33
    -63.323 -0.3593E-22 -0.1094E-22
    -63.018 -0.9147E-14 -0.2786E-14
    -62.714 -0.2280E-07 -0.6945E-08
    -62.409 -0.5041E-03 -0.1535E-03
    -62.105 -0.4867E-01 -0.1498E-01
    -61.800  0.1090E+01  0.3171E+00
    -61.496  0.4595E+00  0.4570E+00
    -61.191 -0.2305E-01  0.4500E+00
    -60.886 -0.2895E-04  0.4500E+00
    -60.582 -0.2449E-09  0.4500E+00
    -60.277  0.0000E+00  0.4500E+00
    -59.973  0.0000E+00  0.4500E+00
    -59.668  0.0000E+00  0.4500E+00
    -59.363  0.0000E+00  0.4500E+00
    -59.059  0.0000E+00  0.4500E+00
    -58.754  0.0000E+00  0.4500E+00
    -58.450  0.0000E+00  0.4500E+00
    -58.145  0.0000E+00  0.4500E+00
    -57.841  0.0000E+00  0.4500E+00
    -57.536  0.0000E+00  0.4500E+00
    -57.231  0.0000E+00  0.4500E+00
    -56.927  0.0000E+00  0.4500E+00
    -56.622  0.0000E+00  0.4500E+00
    -56.318  0.0000E+00  0.4500E+00
    -56.013  0.0000E+00  0.4500E+00
    -55.709  0.0000E+00  0.4500E+00
    -55.404  0.0000E+00  0.4500E+00
    -55.099  0.0000E+00  0.4500E+00
    -54.795  0.0000E+00  0.4500E+00
    -54.490  0.0000E+00  0.4500E+00
    -54.186  0.0000E+00  0.4500E+00
    -53.881  0.0000E+00  0.4500E+00
    -53.577  0.0000E+00  0.4500E+00
    -53.272  0.0000E+00  0.4500E+00
    -52.967  0.0000E+00  0.4500E+00
    -52.663  0.0000E+00  0.4500E+00
    -52.358  0.0000E+00  0.4500E+00
    -52.054  0.0000E+00  0.4500E+00
    -51.749  0.0000E+00  0.4500E+00
    -51.444  0.0000E+00  0.4500E+00
    -51.140  0.0000E+00  0.4500E+00
    -50.835  0.0000E+00  0.4500E+00
    -50.531  0.0000E+00  0.4500E+00
    -50.226  0.0000E+00  0.4500E+00
    -49.922  0.0000E+00  0.4500E+00
    -49.617  0.0000E+00  0.4500E+00
    -49.312  0.0000E+00  0.4500E+00
    -49.008  0.0000E+00  0.4500E+00
    -48.703  0.0000E+00  0.4500E+00
    -48.399  0.0000E+00  0.4500E+00
    -48.094  0.0000E+00  0.4500E+00
    -47.790  0.0000E+00  0.4500E+00
    -47.485  0.0000E+00  0.4500E+00
    -47.180  0.0000E+00  0.4500E+00
    -46.876  0.0000E+00  0.4500E+00
    -46.571  0.0000E+00  0.4500E+00
    -46.267  0.0000E+00  0.4500E+00
    -45.962  0.0000E+00  0.4500E+00
    -45.657  0.0000E+00  0.4500E+00
    -45.353  0.0000E+00  0.4500E+00
    -45.048  0.0000E+00  0.4500E+00
    -44.744  0.0000E+00  0.4500E+00
    -44.439  0.0000E+00  0.4500E+00
    -44.135  0.0000E+00  0.4500E+00
    -43.830  0.0000E+00  0.4500E+00
    -43.525  0.0000E+00  0.4500E+00
    -43.221  0.0000E+00  0.4500E+00
    -42.916  0.0000E+00  0.4500E+00
    -42.612  0.0000E+00  0.4500E+00
    -42.307  0.0000E+00  0.4500E+00
    -42.003  0.0000E+00  0.4500E+00
    -41.698  0.0000E+00  0.4500E+00
    -41.393  0.0000E+00  0.4500E+00
    -41.089  0.0000E+00  0.4500E+00
    -40.784  0.0000E+00  0.4500E+00
    -40.480  0.0000E+00  0.4500E+00
    -40.175  0.0000E+00  0.4500E+00
    -39.870  0.0000E+00  0.4500E+00
    -39.566  0.0000E+00  0.4500E+00
    -39.261  0.0000E+00  0.4500E+00
    -38.957  0.0000E+00  0.4500E+00
    -38.652  0.0000E+00  0.4500E+00
    -38.348  0.0000E+00  0.4500E+00
    -38.043  0.0000E+00  0.4500E+00
    -37.738  0.0000E+00  0.4500E+00
    -37.434  0.0000E+00  0.4500E+00
    -37.129  0.0000E+00  0.4500E+00
    -36.825  0.0000E+00  0.4500E+00
    -36.520  0.0000E+00  0.4500E+00
    -36.216  0.0000E+00  0.4500E+00
    -35.911  0.0000E+00  0.4500E+00
    -35.606  0.0000E+00  0.4500E+00
    -35.302  0.0000E+00  0.4500E+00
    -34.997  0.0000E+00  0.4500E+00
    -34.693  0.0000E+00  0.4500E+00
    -34.388  0.0000E+00  0.4500E+00
    -34.083  0.0000E+00  0.4500E+00
    -33.779  0.0000E+00  0.4500E+00
    -33.474  0.0000E+00  0.4500E+00
    -33.170  0.0000E+00  0.4500E+00
    -32.865  0.0000E+00  0.4500E+00
    -32.561  0.0000E+00  0.4500E+00
    -32.256  0.0000E+00  0.4500E+00
    -31.951  0.0000E+00  0.4500E+00
    -31.647  0.0000E+00  0.4500E+00
    -31.342  0.0000E+00  0.4500E+00
    -31.038  0.0000E+00  0.4500E+00
    -30.733  0.0000E+00  0.4500E+00
    -30.429  0.0000E+00  0.4500E+00
    -30.124  0.0000E+00  0.4500E+00
    -29.819  0.0000E+00  0.4500E+00
    -29.515  0.0000E+00  0.4500E+00
    -29.210  0.0000E+00  0.4500E+00
    -28.906  0.0000E+00  0.4500E+00
    -28.601  0.0000E+00  0.4500E+00
    -28.296  0.0000E+00  0.4500E+00
    -27.992  0.0000E+00  0.4500E+00
    -27.687  0.0000E+00  0.4500E+00
    -27.383  0.0000E+00  0.4500E+00
    -27.078  0.0000E+00  0.4500E+00
    -26.774  0.0000E+00  0.4500E+00
    -26.469  0.0000E+00  0.4500E+00
    -26.164  0.0000E+00  0.4500E+00
    -25.860  0.0000E+00  0.4500E+00
    -25.555  0.0000E+00  0.4500E+00
    -25.251  0.0000E+00  0.4500E+00
    -24.946  0.0000E+00  0.4500E+00
    -24.642  0.0000E+00  0.4500E+00
    -24.337  0.0000E+00  0.4500E+00
    -24.032  0.0000E+00  0.4500E+00
    -23.728  0.0000E+00  0.4500E+00
    -23.423  0.0000E+00  0.4500E+00
    -23.119  0.0000E+00  0.4500E+00
    -22.814  0.0000E+00  0.4500E+00
    -22.509  0.0000E+00  0.4500E+00
    -22.205  0.0000E+00  0.4500E+00
    -21.900  0.0000E+00  0.4500E+00
    -21.596  0.0000E+00  0.4500E+00
    -21.291  0.0000E+00  0.4500E+00
    -20.987  0.0000E+00  0.4500E+00
    -20.682  0.0000E+00  0.4500E+00
    -20.377  0.0000E+00  0.4500E+00
    -20.073  0.0000E+00  0.4500E+00
    -19.768  0.0000E+00  0.4500E+00
    -19.464  0.0000E+00  0.4500E+00
    -19.159  0.0000E+00  0.4500E+00
    -18.855  0.0000E+00  0.4500E+00
    -18.550  0.0000E+00  0.4500E+00
    -18.245  0.0000E+00  0.4500E+00
    -17.941  0.0000E+00  0.4500E+00
    -17.636  0.0000E+00  0.4500E+00
    -17.332  0.0000E+00  0.4500E+00
    -17.027  0.0000E+00  0.4500E+00
    -16.722  0.0000E+00  0.4500E+00
    -16.418  0.0000E+00  0.4500E+00
    -16.113  0.0000E+00  0.4500E+00
    -15.809  0.0000E+00  0.4500E+00
    -15.504  0.0000E+00  0.4500E+00
    -15.200  0.0000E+00  0.4500E+00
    -14.895  0.0000E+00  0.4500E+00
    -14.590  0.0000E+00  0.4500E+00
    -14.286  0.0000E+00  0.4500E+00
    -13.981  0.0000E+00  0.4500E+00
    -13.677  0.0000E+00  0.4500E+00
    -13.372  0.0000E+00  0.4500E+00
    -13.068  0.0000E+00  0.4500E+00
    -12.763  0.0000E+00  0.4500E+00
    -12.458  0.0000E+00  0.4500E+00
    -12.154  0.0000E+00  0.4500E+00
    -11.849  0.0000E+00  0.4500E+00
    -11.545  0.0000E+00  0.4500E+00
    -11.240  0.0000E+00  0.4500E+00
    -10.935  0.0000E+00  0.4500E+00
    -10.631  0.0000E+00  0.4500E+00
    -10.326  0.0000E+00  0.4500E+00
    -10.022  0.0000E+00  0.4500E+00
     -9.717  0.0000E+00  0.4500E+00
     -9.413  0.0000E+00  0.4500E+00
     -9.108  0.0000E+00  0.4500E+00
     -8.803  0.0000E+00  0.4500E+00
     -8.499  0.0000E+00  0.4500E+00
     -8.194  0.0000E+00  0.4500E+00
     -7.890  0.0000E+00  0.4500E+00
     -7.585  0.0000E+00  0.4500E+00
     -7.281  0.0000E+00  0.4500E+00
     -6.976  0.0000E+00  0.4500E+00
     -6.671  0.0000E+00  0.4500E+00
     -6.367  0.0000E+00  0.4500E+00
     -6.062  0.0000E+00  0.4500E+00
     -5.758  0.0000E+00  0.4500E+00
     -5.453  0.0000E+00  0.4500E+00
     -5.148  0.0000E+00  0.4500E+00
     -4.844  0.0000E+00  0.4500E+00
     -4.539  0.0000E+00  0.4500E+00
     -4.235  0.0000E+00  0.4500E+00
     -3.930 -0.2267E-31  0.4500E+00
     -3.626 -0.1647E-21  0.4500E+00
     -3.321 -0.1059E-13  0.4500E+00
     -3.016 -0.6035E-08  0.4500E+00
     -2.712 -0.2494E-04  0.4500E+00
     -2.407  0.3384E-03  0.4501E+00
     -2.103  0.5773E-02  0.4519E+00
     -1.798 -0.6165E-03  0.4517E+00
     -1.494  0.1522E-01  0.4563E+00
     -1.189  0.3233E-02  0.4573E+00
     -0.884  0.1155E-01  0.4608E+00
     -0.580  0.7512E-02  0.4631E+00
     -0.275  0.2203E-01  0.4698E+00
      0.029  0.3622E-02  0.4709E+00
      0.334  0.3431E-01  0.4814E+00
      0.639  0.1530E-01  0.4860E+00
      0.943  0.5253E-01  0.5020E+00
      1.248  0.1069E+00  0.5346E+00
      1.552  0.1412E+00  0.5776E+00
      1.857  0.5387E-01  0.5940E+00
      2.161  0.2254E+00  0.6626E+00
      2.466  0.1453E+00  0.7069E+00
      2.771  0.6392E-01  0.7263E+00
      3.075  0.6125E-01  0.7450E+00
      3.380  0.1073E+00  0.7777E+00
      3.684  0.4985E-01  0.7928E+00
      3.989  0.2831E-01  0.8015E+00
      4.293  0.1965E+00  0.8613E+00
      4.598  0.2538E+00  0.9386E+00
      4.903  0.3075E+00  0.1032E+01
      5.207  0.2456E+00  0.1107E+01
      5.512  0.2428E+00  0.1181E+01
      5.816  0.2641E+00  0.1261E+01
      6.121  0.2646E+00  0.1342E+01
      6.426  0.3513E+00  0.1449E+01
      6.730  0.1615E+00  0.1498E+01
      7.035  0.6093E-01  0.1517E+01
      7.339  0.2894E-01  0.1526E+01
      7.644  0.1176E-01  0.1529E+01
      7.948  0.4948E-01  0.1544E+01
      8.253  0.2249E-01  0.1551E+01
      8.558  0.3085E-01  0.1560E+01
      8.862  0.1859E-01  0.1566E+01
      9.167  0.9898E-03  0.1566E+01
      9.471  0.4380E-01  0.1580E+01
      9.776  0.2429E-01  0.1587E+01
     10.080  0.1611E-01  0.1592E+01
     10.385  0.4799E-01  0.1607E+01
     10.690  0.1442E-01  0.1611E+01
     10.994  0.1629E-01  0.1616E+01
     11.299  0.2126E-01  0.1623E+01
     11.603 -0.1648E-02  0.1622E+01
     11.908  0.1282E-01  0.1626E+01
     12.213  0.4483E-01  0.1640E+01
     12.517  0.3587E-02  0.1641E+01
     12.822  0.8229E-02  0.1643E+01
     13.126  0.5952E-01  0.1661E+01
     13.431  0.1349E-01  0.1665E+01
     13.735  0.1424E-01  0.1670E+01
     14.040  0.2540E-01  0.1677E+01
     14.345  0.2865E-01  0.1686E+01
     14.649  0.3315E-01  0.1696E+01
     14.954  0.2125E-01  0.1703E+01
     15.258  0.3428E-01  0.1713E+01
     15.563  0.2183E-01  0.1720E+01
     15.867  0.2027E-01  0.1726E+01
     16.172  0.3671E-01  0.1737E+01
     16.477  0.2820E-02  0.1738E+01
     16.781  0.2528E-01  0.1746E+01
     17.086  0.4371E-01  0.1759E+01
     17.390  0.3801E-01  0.1771E+01
     17.695  0.7173E-01  0.1793E+01
     18.000  0.2053E-01  0.1799E+01
     18.304  0.7026E-01  0.1820E+01
     18.609  0.1338E-01  0.1824E+01
     18.913  0.2710E-01  0.1833E+01
     19.218  0.7819E-02  0.1835E+01
     19.522  0.3013E-01  0.1844E+01
     19.827  0.1411E-01  0.1848E+01
     20.132 -0.7030E-03  0.1848E+01
     20.436 -0.8401E-06  0.1848E+01
     20.741 -0.3763E-04  0.1848E+01
     21.045  0.6566E-03  0.1848E+01
     21.350  0.5592E-02  0.1850E+01
     21.654 -0.1241E-03  0.1850E+01
     21.959 -0.7295E-05  0.1850E+01
     22.264 -0.6462E-09  0.1850E+01
     22.568 -0.4415E-15  0.1850E+01
     22.873  0.0000E+00  0.1850E+01
     23.177  0.0000E+00  0.1850E+01
     23.482  0.0000E+00  0.1850E+01
     23.787  0.0000E+00  0.1850E+01
     24.091  0.0000E+00  0.1850E+01
     24.396  0.0000E+00  0.1850E+01
     24.700  0.0000E+00  0.1850E+01
     25.005  0.0000E+00  0.1850E+01
     25.309  0.0000E+00  0.1850E+01
