    4    4   40    1
  0.1371800E+02  0.3800000E-09  0.3800000E-09  0.3800000E-09  0.5000000E-15
  1.000000000000000E-004
  CAR 
 unknown system                          
     62     10     37
 
  0.8333333E-01  0.8333333E-01  0.8333333E-01  0.3703704E-01
    1      -61.886016   1.000000
    2      -61.886016   1.000000
    3      -61.883465   1.000000
    4      -61.844578   1.000000
    5      -61.844578   1.000000
    6      -61.834206   1.000000
    7      -61.831005   1.000000
    8      -61.826244   1.000000
    9      -61.826244   1.000000
   10       -2.273531   1.000000
   11        0.891991   1.000000
   12        0.891991   1.000000
   13        1.807068   1.000000
   14        1.807068   1.000000
   15        1.847766   1.000000
   16        2.930665   1.000000
   17        4.514239   1.000000
   18        4.654227   1.000000
   19        4.654227   1.000000
   20        5.629946   1.000000
   21        5.629946   1.000000
   22        6.168902   1.000000
   23        6.168902   1.000000
   24        6.169342   1.000000
   25        6.254101   1.000000
   26        6.317029   1.000000
   27        6.317029   1.000000
   28        6.492745   1.000000
   29        6.639880   1.000000
   30        6.639880   1.000000
   31        9.456114  -0.000000
   32        9.456114  -0.000000
   33        9.465927  -0.000000
   34       16.037173   0.000000
   35       17.414224   0.000000
   36       17.414227   0.000000
   37       19.456799   0.000000
 
  0.2500000E+00  0.8333333E-01  0.8333333E-01  0.1111111E+00
    1      -61.886606   1.000000
    2      -61.882560   1.000000
    3      -61.880737   1.000000
    4      -61.865487   1.000000
    5      -61.851058   1.000000
    6      -61.847707   1.000000
    7      -61.835079   1.000000
    8      -61.832582   1.000000
    9      -61.826136   1.000000
   10       -1.570729   1.000000
   11        1.144370   1.000000
   12        1.215722   1.000000
   13        1.941606   1.000000
   14        1.972225   1.000000
   15        2.056189   1.000000
   16        3.102837   1.000000
   17        4.322760   1.000000
   18        4.751819   1.000000
   19        4.766628   1.000000
   20        5.198323   1.000000
   21        5.283110   1.000000
   22        5.408794   1.000000
   23        5.629683   1.000000
   24        5.747867   1.000000
   25        6.011070   1.000000
   26        6.025953   1.000000
   27        6.030467   1.000000
   28        6.416156   1.000000
   29        6.482772   1.000000
   30        6.635792   1.000000
   31        7.323300   1.000000
   32       10.958031  -0.000000
   33       11.060145  -0.000000
   34       16.809545   0.000000
   35       16.876975   0.000000
   36       17.362673   0.000000
   37       18.018430   0.000000
 
  0.4166667E+00  0.8333333E-01  0.8333333E-01  0.1111111E+00
    1      -61.878629   1.000000
    2      -61.876914   1.000000
    3      -61.854398   1.000000
    4      -61.853329   1.000000
    5      -61.847355   1.000000
    6      -61.838372   1.000000
    7      -61.832992   1.000000
    8      -61.827187   1.000000
    9      -61.825344   1.000000
   10       -0.423035   1.000000
   11        1.217666   1.000000
   12        1.454559   1.000000
   13        2.127637   1.000000
   14        2.164413   1.000000
   15        2.380911   1.000000
   16        3.434215   1.000000
   17        4.106188   1.000000
   18        4.222340   1.000000
   19        4.445911   1.000000
   20        4.456030   1.000000
   21        5.020732   1.000000
   22        5.175973   1.000000
   23        5.431862   1.000000
   24        5.593791   1.000000
   25        5.659790   1.000000
   26        5.709758   1.000000
   27        5.965307   1.000000
   28        6.029408   1.000000
   29        6.204529   1.000000
   30        6.458888   1.000000
   31        6.627782   1.000000
   32       12.853576  -0.000000
   33       13.042961  -0.000000
   34       14.932907   0.000000
   35       15.209205   0.000000
   36       17.628540   0.000000
   37       17.671271   0.000000
 
  0.2500000E+00  0.2500000E+00  0.8333333E-01  0.1111111E+00
    1      -61.882749   1.000000
    2      -61.875043   1.000000
    3      -61.868205   1.000000
    4      -61.859539   1.000000
    5      -61.847675   1.000000
    6      -61.846206   1.000000
    7      -61.834657   1.000000
    8      -61.827360   1.000000
    9      -61.819174   1.000000
   10       -0.911614   1.000000
   11        1.327683   1.000000
   12        1.564418   1.000000
   13        2.033589   1.000000
   14        2.058719   1.000000
   15        2.242121   1.000000
   16        3.218694   1.000000
   17        4.161838   1.000000
   18        4.555376   1.000000
   19        4.882107   1.000000
   20        4.889129   1.000000
   21        4.954353   1.000000
   22        4.955820   1.000000
   23        5.355084   1.000000
   24        5.765712   1.000000
   25        5.802879   1.000000
   26        5.862236   1.000000
   27        5.891552   1.000000
   28        6.323738   1.000000
   29        6.379909   1.000000
   30        6.401089   1.000000
   31        8.459899  -0.034770
   32        8.751199  -0.000672
   33       12.161041  -0.000000
   34       14.456827   0.000000
   35       17.436604   0.000000
   36       18.244840   0.000000
   37       18.289235   0.000000
 
  0.4166667E+00  0.2500000E+00  0.8333333E-01  0.2222222E+00
    1      -61.882747   1.000000
    2      -61.877161   1.000000
    3      -61.862016   1.000000
    4      -61.855343   1.000000
    5      -61.846753   1.000000
    6      -61.838400   1.000000
    7      -61.833403   1.000000
    8      -61.829000   1.000000
    9      -61.815397   1.000000
   10        0.166478   1.000000
   11        1.241735   1.000000
   12        1.826692   1.000000
   13        2.071391   1.000000
   14        2.243823   1.000000
   15        2.651935   1.000000
   16        3.373285   1.000000
   17        4.050108   1.000000
   18        4.227545   1.000000
   19        4.285355   1.000000
   20        4.510070   1.000000
   21        4.752497   1.000000
   22        5.090791   1.000000
   23        5.307768   1.000000
   24        5.507280   1.000000
   25        5.615332   1.000000
   26        5.628820   1.000000
   27        5.996796   1.000000
   28        6.238705   1.000000
   29        6.261815   1.000000
   30        6.281076   1.000000
   31        6.922127   1.000000
   32       10.131037  -0.000000
   33       11.962193  -0.000000
   34       14.045686   0.000000
   35       15.957614   0.000000
   36       18.148098   0.000000
   37       19.480717   0.000000
 
  0.4166667E+00  0.4166667E+00  0.8333333E-01  0.1111111E+00
    1      -61.879224   1.000000
    2      -61.876629   1.000000
    3      -61.864002   1.000000
    4      -61.860724   1.000000
    5      -61.852736   1.000000
    6      -61.849189   1.000000
    7      -61.832798   1.000000
    8      -61.830652   1.000000
    9      -61.817424   1.000000
   10        0.838103   1.000000
   11        1.301145   1.000000
   12        2.026613   1.000000
   13        2.139274   1.000000
   14        2.661192   1.000000
   15        2.947286   1.000000
   16        3.362116   1.000000
   17        3.937353   1.000000
   18        4.255946   1.000000
   19        4.308649   1.000000
   20        4.464639   1.000000
   21        4.629097   1.000000
   22        4.709487   1.000000
   23        5.242981   1.000000
   24        5.358440   1.000000
   25        5.414950   1.000000
   26        5.584920   1.000000
   27        5.859425   1.000000
   28        5.887092   1.000000
   29        6.007511   1.000000
   30        6.878166   1.000000
   31        7.759759   1.002301
   32        8.276844   0.297850
   33        9.730096  -0.000000
   34       15.517989   0.000000
   35       17.258176   0.000000
   36       17.581056   0.000000
   37       18.762143   0.000000
 
  0.2500000E+00  0.2500000E+00  0.2500000E+00  0.3703704E-01
    1      -61.894545   1.000000
    2      -61.876503   1.000000
    3      -61.876503   1.000000
    4      -61.851497   1.000000
    5      -61.847481   1.000000
    6      -61.847481   1.000000
    7      -61.839581   1.000000
    8      -61.824171   1.000000
    9      -61.824171   1.000000
   10       -0.351060   1.000000
   11        1.506115   1.000000
   12        1.506115   1.000000
   13        2.202284   1.000000
   14        2.202284   1.000000
   15        2.442769   1.000000
   16        3.195844   1.000000
   17        4.066406   1.000000
   18        4.674468   1.000000
   19        4.749530   1.000000
   20        4.749530   1.000000
   21        4.843979   1.000000
   22        4.843979   1.000000
   23        5.317331   1.000000
   24        5.317331   1.000000
   25        5.541471   1.000000
   26        5.790412   1.000000
   27        5.790412   1.000000
   28        6.414812   1.000000
   29        6.523882   1.000000
   30        6.523882   1.000000
   31        9.345443  -0.000000
   32        9.345444  -0.000000
   33        9.390970  -0.000000
   34       14.891598   0.000000
   35       15.601040   0.000000
   36       15.601040   0.000000
   37       21.156063   0.000000
 
  0.4166667E+00  0.2500000E+00  0.2500000E+00  0.1111111E+00
    1      -61.898183   1.000000
    2      -61.886777   1.000000
    3      -61.869632   1.000000
    4      -61.854819   1.000000
    5      -61.846233   1.000000
    6      -61.837649   1.000000
    7      -61.836301   1.000000
    8      -61.820336   1.000000
    9      -61.820020   1.000000
   10        0.522430   1.000000
   11        1.274517   1.000000
   12        1.495083   1.000000
   13        2.243465   1.000000
   14        2.269367   1.000000
   15        3.003232   1.000000
   16        3.421866   1.000000
   17        4.168892   1.000000
   18        4.331995   1.000000
   19        4.500555   1.000000
   20        4.749705   1.000000
   21        4.823185   1.000000
   22        4.866014   1.000000
   23        5.079851   1.000000
   24        5.124497   1.000000
   25        5.355826   1.000000
   26        5.987824   1.000000
   27        6.134894   1.000000
   28        6.335538   1.000000
   29        6.406314   1.000000
   30        6.413820   1.000000
   31        7.105515   1.000000
   32       10.268807  -0.000000
   33       10.455013  -0.000000
   34       12.919575  -0.000000
   35       13.712795  -0.000000
   36       16.934508   0.000000
   37       18.903572   0.000000
 
  0.4166667E+00  0.4166667E+00  0.2500000E+00  0.1111111E+00
    1      -61.899469   1.000000
    2      -61.888984   1.000000
    3      -61.877557   1.000000
    4      -61.862114   1.000000
    5      -61.841106   1.000000
    6      -61.834970   1.000000
    7      -61.829130   1.000000
    8      -61.820650   1.000000
    9      -61.812513   1.000000
   10        0.838403   1.000000
   11        1.196116   1.000000
   12        1.323857   1.000000
   13        2.069321   1.000000
   14        2.710348   1.000000
   15        3.199231   1.000000
   16        3.985480   1.000000
   17        4.443512   1.000000
   18        4.503977   1.000000
   19        4.663939   1.000000
   20        4.714059   1.000000
   21        4.808256   1.000000
   22        4.930208   1.000000
   23        5.005559   1.000000
   24        5.015506   1.000000
   25        5.116671   1.000000
   26        5.991602   1.000000
   27        6.252263   1.000000
   28        6.296723   1.000000
   29        6.297507   1.000000
   30        6.659034   1.000000
   31        7.758817   1.002254
   32        8.171174   0.728333
   33        9.336293  -0.000000
   34       13.035771  -0.000000
   35       14.388742   0.000000
   36       14.986339   0.000000
   37       16.548380   0.000000
 
  0.4166667E+00  0.4166667E+00  0.4166667E+00  0.3703704E-01
    1      -61.910885   1.000000
    2      -61.892517   1.000000
    3      -61.892517   1.000000
    4      -61.891454   1.000000
    5      -61.828864   1.000000
    6      -61.828864   1.000000
    7      -61.826399   1.000000
    8      -61.814224   1.000000
    9      -61.814224   1.000000
   10        0.819362   1.000000
   11        0.925658   1.000000
   12        0.925658   1.000000
   13        2.104562   1.000000
   14        3.089590   1.000000
   15        3.089590   1.000000
   16        4.388580   1.000000
   17        4.600306   1.000000
   18        4.600306   1.000000
   19        4.793465   1.000000
   20        4.793465   1.000000
   21        4.914659   1.000000
   22        5.405534   1.000000
   23        5.518813   1.000000
   24        5.518813   1.000000
   25        5.733962   1.000000
   26        6.313702   1.000000
   27        6.313702   1.000000
   28        6.375799   1.000000
   29        6.477714   1.000000
   30        6.477714   1.000000
   31        7.766670   1.002639
   32        7.766670   1.002639
   33        7.834085   1.008837
   34       11.925243  -0.000000
   35       13.387006  -0.000000
   36       13.387006  -0.000000
   37       14.440559   0.000000
