       N       E                     dE             d eps       ncg     rms          ort
DAV:   1     0.597003716564E+03    0.59700E+03   -0.30989E+04   370   0.171E+03
DAV:   2     0.131418514603E+02   -0.58386E+03   -0.56235E+03   370   0.527E+02
DAV:   3    -0.166201874414E+02   -0.29762E+02   -0.27791E+02   370   0.126E+02
DAV:   4    -0.174941267391E+02   -0.87394E+00   -0.83504E+00   370   0.158E+01
DAV:   5    -0.175060688278E+02   -0.11942E-01   -0.11942E-01   370   0.204E+00
SDA:   6    -0.455106773166E+01    0.12955E+02   -0.11942E-01   370   0.916E+02 0.000E+00
CGA:   7    -0.132335985721E+02   -0.86825E+01   -0.91217E+01   370   0.534E+01-0.197E+01
CGA:   8    -0.140153946121E+02   -0.78180E+00   -0.78289E+00   370   0.104E+01 0.294E-02
CGA:   9    -0.142976756854E+02   -0.28228E+00   -0.28174E+00   370   0.682E+00 0.550E-02
CGA:  10    -0.144887830193E+02   -0.19111E+00   -0.19068E+00   370   0.147E+00 0.360E-02
CGA:  11    -0.145180071323E+02   -0.29224E-01   -0.29224E-01   370   0.340E-01-0.482E-04
CGA:  12    -0.145271361795E+02   -0.91290E-02   -0.91362E-02   370   0.776E-02-0.112E-03
CGA:  13    -0.145290125950E+02   -0.18764E-02   -0.18761E-02   370   0.152E-02 0.702E-05
CGA:  14    -0.145293845521E+02   -0.37196E-03   -0.37107E-03   370   0.312E-03 0.238E-04
CGA:  15    -0.145294771387E+02   -0.92587E-04   -0.92349E-04   370   0.111E-03 0.261E-05
CGA:  16    -0.145295073011E+02   -0.30162E-04   -0.30268E-04   370   0.413E-04-0.178E-05
CGA:  17    -0.145295187166E+02   -0.11416E-04   -0.11668E-04   370   0.140E-04-0.354E-05
CGA:  18    -0.145295224970E+02   -0.37804E-05   -0.38397E-05   370   0.371E-05-0.734E-06
   1 F= -.14529522E+02 E0= -.14526420E+02  d E =-.145295E+02
       N       E                     dE             d eps       ncg     rms          ort
SDA:   1     0.145385140139E+04    0.14684E+04    0.00000E+00   370   0.359E+04 0.000E+00
CGA:   2     0.368671143257E+03   -0.10852E+04   -0.10975E+04   370   0.469E+03 0.157E+02
CGA:   3     0.271087149482E+03   -0.97584E+02   -0.98789E+02   370   0.719E+02 0.147E+02
CGA:   4     0.247767918738E+03   -0.23319E+02   -0.22648E+02   370   0.188E+02 0.620E+01
CGA:   5     0.241321777068E+03   -0.64461E+01   -0.64818E+01   370   0.635E+01 0.434E+00
CGA:   6     0.238536296720E+03   -0.27855E+01   -0.26402E+01   370   0.237E+01 0.523E+00
CGA:   7     0.238001763432E+03   -0.53453E+00   -0.45795E+00   370   0.122E+01-0.217E+00
CGA:   8     0.237722330912E+03   -0.27943E+00   -0.27933E+00   370   0.324E+00 0.755E-02
CGA:   9     0.237676433400E+03   -0.45898E-01   -0.63315E-01   370   0.570E-01 0.746E-01
CGA:  10     0.238053712901E+03    0.37728E+00   -0.29757E+02   370   0.161E+01-0.358E+00
CGA:  11     0.237660307288E+03   -0.39341E+00   -0.39473E+00   370   0.662E-01-0.170E-03
CGA:  12     0.237632908382E+03   -0.27399E-01   -0.27384E-01   370   0.152E-01-0.351E-03
CGA:  13     0.237624820684E+03   -0.80877E-02   -0.81397E-02   370   0.357E-02-0.324E-03
CGA:  14     0.237623366797E+03   -0.14539E-02   -0.14532E-02   370   0.999E-03-0.288E-04
CGA:  15     0.237622975724E+03   -0.39107E-03   -0.39035E-03   370   0.312E-03-0.166E-04
CGA:  16     0.237622876217E+03   -0.99507E-04   -0.98584E-04   370   0.589E-04-0.820E-05
CGA:  17     0.237622854150E+03   -0.22068E-04   -0.21993E-04   370   0.133E-04-0.159E-05
CGA:  18     0.237622848428E+03   -0.57222E-05   -0.57253E-05   370   0.390E-05-0.417E-06
   2 F= 0.23762285E+03 E0= 0.23762242E+03  d E =0.252152E+03
       N       E                     dE             d eps       ncg     rms          ort
SDA:   1     0.463713959288E+04    0.43995E+04    0.00000E+00   370   0.364E+05 0.000E+00
CGA:   2     0.256449703852E+04   -0.20726E+04   -0.87225E+04   370   0.146E+05-0.494E+04
CGA:   3     0.246822248849E+04   -0.96275E+02   -0.26689E+04   370   0.855E+04 0.590E+04
CGA:   4     0.230289018661E+04   -0.16533E+03   -0.27965E+04   370   0.644E+04 0.365E+04
CGA:   5     0.175893753882E+04   -0.54395E+03   -0.21780E+04   370   0.525E+04 0.401E+04
CGA:   6     0.722592790956E+03   -0.10363E+04   -0.14141E+04   370   0.141E+04 0.114E+04
CGA:   7     0.306643711627E+03   -0.41595E+03   -0.45349E+03   370   0.534E+03 0.201E+03
CGA:   8     0.137761084838E+03   -0.16888E+03   -0.17890E+03   370   0.273E+03 0.433E+02
CGA:   9     0.614979317116E+02   -0.76263E+02   -0.81294E+02   370   0.983E+02 0.154E+02
CGA:  10     0.265566487396E+02   -0.34941E+02   -0.35254E+02   370   0.585E+02 0.380E+01
CGA:  11     0.846734900530E+01   -0.18089E+02   -0.18792E+02   370   0.269E+02 0.344E+01
CGA:  12    -0.342553485670E+01   -0.11893E+02   -0.12085E+02   370   0.176E+02-0.290E+01
CGA:  13    -0.873317525262E+01   -0.53076E+01   -0.53143E+01   370   0.941E+01-0.111E+00
CGA:  14    -0.116531723941E+02   -0.29200E+01   -0.28924E+01   370   0.557E+01-0.267E+00
CGA:  15    -0.133128128299E+02   -0.16596E+01   -0.16200E+01   370   0.258E+01-0.291E+00
CGA:  16    -0.143216643635E+02   -0.10089E+01   -0.10452E+01   370   0.255E+01-0.110E+00
CGA:  17    -0.146988987204E+02   -0.37723E+00   -0.44441E+00   370   0.149E+01-0.135E+00
CGA:  18    -0.152025781712E+02   -0.50368E+00   -0.53298E+00   370   0.154E+01-0.709E+00
CGA:  19    -0.153099896530E+02   -0.10741E+00   -0.10564E+00   370   0.973E+00 0.189E-01
CGA:  20    -0.154492169984E+02   -0.13923E+00   -0.16317E+00   370   0.643E+00-0.145E+00
CGA:  21    -0.154251539681E+02    0.24063E-01   -0.31816E+00   370   0.172E+01-0.950E+00
CGA:  22    -0.158447077193E+02   -0.41955E+00   -0.41675E+00   370   0.582E+00-0.204E-02
CGA:  23    -0.160094095180E+02   -0.16470E+00   -0.16515E+00   370   0.124E+00 0.209E-02
CGA:  24    -0.160836821129E+02   -0.74273E-01   -0.75097E-01   370   0.331E-01-0.296E-02
CGA:  25    -0.160999645282E+02   -0.16282E-01   -0.16316E-01   370   0.713E-02-0.181E-03
CGA:  26    -0.161017406084E+02   -0.17761E-02   -0.17741E-02   370   0.238E-02-0.127E-04
CGA:  27    -0.161023917621E+02   -0.65115E-03   -0.65183E-03   370   0.291E-03 0.901E-05
CGA:  28    -0.161025016731E+02   -0.10991E-03   -0.11009E-03   370   0.102E-03-0.667E-05
CGA:  29    -0.161025383961E+02   -0.36723E-04   -0.36694E-04   370   0.302E-04 0.183E-05
CGA:  30    -0.161025547174E+02   -0.16321E-04   -0.16623E-04   370   0.199E-04-0.161E-05
CGA:  31    -0.161025583806E+02   -0.36632E-05   -0.37535E-05   370   0.475E-05 0.552E-06
   3 F= -.16102558E+02 E0= -.16100806E+02  d E =-.157304E+01
       N       E                     dE             d eps       ncg     rms          ort
SDA:   1    -0.143110642694E+02    0.17915E+01    0.00000E+00   370   0.205E+02 0.000E+00
CGA:   2    -0.164554630563E+02   -0.21444E+01   -0.20781E+01   370   0.104E+01 0.620E+00
CGA:   3    -0.166143094810E+02   -0.15885E+00   -0.15886E+00   370   0.129E+00 0.646E-03
CGA:   4    -0.166404771823E+02   -0.26168E-01   -0.26235E-01   370   0.509E-01 0.147E-03
CGA:   5    -0.166546295404E+02   -0.14152E-01   -0.14160E-01   370   0.184E-01 0.128E-03
CGA:   6    -0.166593396360E+02   -0.47101E-02   -0.47111E-02   370   0.102E-01 0.593E-05
CGA:   7    -0.166626864758E+02   -0.33468E-02   -0.33466E-02   370   0.316E-02 0.322E-04
CGA:   8    -0.166634242114E+02   -0.73774E-03   -0.73718E-03   370   0.698E-03-0.641E-05
CGA:   9    -0.166636181580E+02   -0.19395E-03   -0.19363E-03   370   0.179E-03-0.770E-05
CGA:  10    -0.166636667078E+02   -0.48550E-04   -0.48813E-04   370   0.379E-04 0.632E-05
CGA:  11    -0.166636765900E+02   -0.98822E-05   -0.10128E-04   370   0.983E-05 0.432E-05
   4 F= -.16663677E+02 E0= -.16662010E+02  d E =-.213415E+01
       N       E                     dE             d eps       ncg     rms          ort
SDA:   1    -0.962945579510E+01    0.70342E+01    0.00000E+00   370   0.627E+02 0.000E+00
CGA:   2    -0.164350869555E+02   -0.68056E+01   -0.65212E+01   370   0.312E+01 0.253E+01
CGA:   3    -0.169368929073E+02   -0.50181E+00   -0.50128E+00   370   0.396E+00 0.445E-02
CGA:   4    -0.170187846730E+02   -0.81892E-01   -0.82102E-01   370   0.162E+00 0.578E-03
CGA:   5    -0.170629194240E+02   -0.44135E-01   -0.44146E-01   370   0.595E-01 0.423E-03
CGA:   6    -0.170780485945E+02   -0.15129E-01   -0.15133E-01   370   0.325E-01 0.556E-04
CGA:   7    -0.170887015908E+02   -0.10653E-01   -0.10647E-01   370   0.951E-02 0.113E-03
CGA:   8    -0.170909990459E+02   -0.22975E-02   -0.22971E-02   370   0.219E-02-0.105E-04
CGA:   9    -0.170916078856E+02   -0.60884E-03   -0.60869E-03   370   0.591E-03-0.155E-04
CGA:  10    -0.170917592538E+02   -0.15137E-03   -0.15166E-03   370   0.156E-03 0.102E-04
CGA:  11    -0.170917942904E+02   -0.35037E-04   -0.35647E-04   370   0.408E-04 0.990E-05
CGA:  12    -0.170918073892E+02   -0.13099E-04   -0.13046E-04   370   0.141E-04 0.285E-05
CGA:  13    -0.170918127577E+02   -0.53685E-05   -0.53790E-05   370   0.411E-05-0.146E-06
   5 F= -.17091813E+02 E0= -.17089743E+02  d E =-.256229E+01
       N       E                     dE             d eps       ncg     rms          ort
SDA:   1    -0.170086702384E+02    0.83137E-01    0.00000E+00   370   0.770E+00 0.000E+00
CGA:   2    -0.170887887585E+02   -0.80119E-01   -0.79813E-01   370   0.371E-01 0.257E-02
CGA:   3    -0.170944840541E+02   -0.56953E-02   -0.56990E-02   370   0.419E-02 0.271E-04
CGA:   4    -0.170954121654E+02   -0.92811E-03   -0.93010E-03   370   0.176E-02 0.397E-04
CGA:   5    -0.170959364177E+02   -0.52425E-03   -0.52371E-03   370   0.597E-03 0.198E-04
CGA:   6    -0.170961198689E+02   -0.18345E-03   -0.18345E-03   370   0.377E-03-0.612E-07
CGA:   7    -0.170962248870E+02   -0.10502E-03   -0.10499E-03   370   0.876E-04 0.314E-05
CGA:   8    -0.170962464719E+02   -0.21585E-04   -0.21531E-04   370   0.235E-04-0.195E-05
CGA:   9    -0.170962532331E+02   -0.67611E-05   -0.67976E-05   370   0.649E-05-0.142E-05
   6 F= -.17096253E+02 E0= -.17094189E+02  d E =-.256673E+01
