 vasp.5.4.4.18Apr17-6-g9f103f2a35 (build Oct  7 2025 21:22:07) complex          
  
 executed on             LinuxIFC date 2025.11.06  15:52:38
 running on    1 total cores
 distrk:  each k-point on    1 cores,    1 groups
 distr:  one band on NCORES_PER_BAND=   1 cores,    1 groups


--------------------------------------------------------------------------------------------------------


 INCAR:
 POTCAR:   PAW_PBE Au 06Sep2000                   
 POTCAR:   PAW_PBE Cu_pv 06Sep2000                
 POTCAR:   PAW_PBE Au 06Sep2000                   
   VRHFIN =Au: s1d10                                                            
   LEXCH  = PE                                                                  
   EATOM  =   926.0567 eV,   68.0632 Ry                                         
                                                                                
   TITEL  = PAW_PBE Au 06Sep2000                                                
   LULTRA =        F    use ultrasoft PP ?                                      
   IUNSCR =        1    unscreen: 0-lin 1-nonlin 2-no                           
   RPACOR =    2.330    partial core radius                                     
   POMASS =  196.966; ZVAL   =   11.000    mass and valenz                      
   RCORE  =    2.500    outmost cutoff radius                                   
   RWIGS  =    2.840; RWIGS  =    1.503    wigner-seitz radius (au A)           
   ENMAX  =  229.948; ENMIN  =  172.461 eV                                      
   RCLOC  =    1.964    cutoff for local pot                                    
   LCOR   =        T    correct aug charges                                     
   LPAW   =        T    paw PP                                                  
   EAUG   =  356.670                                                            
   DEXC   =    -.025                                                            
   RMAX   =    3.041    core radius for proj-oper                               
   RAUG   =    1.300    factor for augmentation sphere                          
   RDEP   =    2.598    radius for radial grids                                 
   QCUT   =   -4.111; QGAM   =    8.222    optimization parameters              
                                                                                
   Description                                                                  
     l     E      TYP  RCUT    TYP  RCUT                                        
     2   .000     23  2.500                                                     
     2   .000     23  2.500                                                     
     0   .000     23  2.500                                                     
     0   .000     23  2.500                                                     
     1  -.200     23  2.500                                                     
     1   .000     23  2.500                                                     
     3   .000      7   .000                                                     
  local pseudopotential read in
  partial core-charges read in
  atomic valenz-charges read in
  non local Contribution for L=           2  read in
    real space projection operators read in
  non local Contribution for L=           2  read in
    real space projection operators read in
  non local Contribution for L=           0  read in
    real space projection operators read in
  non local Contribution for L=           0  read in
    real space projection operators read in
  non local Contribution for L=           1  read in
    real space projection operators read in
  non local Contribution for L=           1  read in
    real space projection operators read in
    PAW grid and wavefunctions read in
 
   number of l-projection  operators is LMAX  =           6
   number of lm-projection operators is LMMAX =          18
 
 POTCAR:   PAW_PBE Cu_pv 06Sep2000                
   VRHFIN =Cu: d10 p1                                                           
   LEXCH  = PE                                                                  
   EATOM  =  4119.1903 eV,  302.7519 Ry                                         
                                                                                
   TITEL  = PAW_PBE Cu_pv 06Sep2000                                             
   LULTRA =        F    use ultrasoft PP ?                                      
   IUNSCR =        1    unscreen: 0-lin 1-nonlin 2-no                           
   RPACOR =    1.500    partial core radius                                     
   POMASS =   63.546; ZVAL   =   17.000    mass and valenz                      
   RCORE  =    2.000    outmost cutoff radius                                   
   RWIGS  =    2.000; RWIGS  =    1.058    wigner-seitz radius (au A)           
   ENMAX  =  368.605; ENMIN  =  276.454 eV                                      
   RCLOC  =    1.304    cutoff for local pot                                    
   LCOR   =        T    correct aug charges                                     
   LPAW   =        T    paw PP                                                  
   EAUG   =  758.233                                                            
   DEXC   =    -.002                                                            
   RMAX   =    2.402    core radius for proj-oper                               
   RAUG   =    1.300    factor for augmentation sphere                          
   RDEP   =    2.025    radius for radial grids                                 
   QCUT   =   -5.205; QGAM   =   10.410    optimization parameters              
                                                                                
   Description                                                                  
     l     E      TYP  RCUT    TYP  RCUT                                        
     1   .000     23  1.700                                                     
     1  -.100     23  1.700                                                     
     2   .000     23  2.000                                                     
     2   .000     23  2.000                                                     
     0   .000     23  1.800                                                     
     0   .000     23  1.800                                                     
     3   .000      7   .000                                                     
  local pseudopotential read in
  partial core-charges read in
  atomic valenz-charges read in
  non local Contribution for L=           1  read in
    real space projection operators read in
  non local Contribution for L=           1  read in
    real space projection operators read in
  non local Contribution for L=           2  read in
    real space projection operators read in
  non local Contribution for L=           2  read in
    real space projection operators read in
  non local Contribution for L=           0  read in
    real space projection operators read in
  non local Contribution for L=           0  read in
    real space projection operators read in
    PAW grid and wavefunctions read in
 
   number of l-projection  operators is LMAX  =           6
   number of lm-projection operators is LMMAX =          18
 

 ----------------------------------------------------------------------------- 
|                                                                             |
|  ADVICE TO THIS USER RUNNING 'VASP/VAMP'   (HEAR YOUR MASTER'S VOICE ...):  |
|                                                                             |
|      You have a (more or less) 'small supercell' and for smaller cells      |
|      it is recommended  to use the reciprocal-space projection scheme!      |
|      The real space optimization is not  efficient for small cells and it   |
|      is also less accurate ...                                              |
|      Therefore set LREAL=.FALSE. in the  INCAR file                         |
|                                                                             |
 ----------------------------------------------------------------------------- 

 Optimization of the real space projectors (new method)

 maximal supplied QI-value         = 15.12
 optimisation between [QCUT,QGAM] = [  8.77, 17.69] = [ 21.53, 87.61] Ry 
 Optimized for a Real-space Cutoff    1.74 Angstroem

   l    n(q)    QCUT    max X(q) W(low)/X(q) W(high)/X(q)  e(spline) 
   2      8     8.768     3.714    0.44E-04    0.39E-04    0.44E-07
   2      8     8.768    30.244    0.40E-03    0.29E-03    0.46E-06
   0      9     8.768    12.875    0.23E-04    0.52E-05    0.51E-08
   0      9     8.768    62.664    0.99E-04    0.91E-04    0.89E-07
   1      9     8.768     6.953    0.21E-04    0.43E-05    0.30E-07
   1      9     8.768    10.039    0.11E-03    0.45E-04    0.97E-07
 Optimization of the real space projectors (new method)

 maximal supplied QI-value         = 18.90
 optimisation between [QCUT,QGAM] = [  8.69, 17.57] = [ 21.16, 86.49] Ry 
 Optimized for a Real-space Cutoff    1.59 Angstroem

   l    n(q)    QCUT    max X(q) W(low)/X(q) W(high)/X(q)  e(spline) 
   1      8     8.693     3.506    0.57E-05    0.19E-04    0.87E-07
   1      8     8.693     4.421    0.39E-03    0.38E-03    0.20E-06
   2      7     8.693     3.723    0.66E-04    0.29E-04    0.98E-07
   2      7     8.693    16.670    0.43E-03    0.41E-03    0.16E-06
   0      8     8.693    19.435    0.18E-04    0.13E-04    0.13E-07
   0      8     8.693    60.574    0.64E-04    0.13E-04    0.15E-06
 PAW_PBE Au 06Sep2000                   :
 energy of atom  1       EATOM= -926.0567
 kinetic energy error for atom=    0.0455 (will be added to EATOM!!)
 PAW_PBE Cu_pv 06Sep2000                :
 energy of atom  2       EATOM=-4119.1903
 kinetic energy error for atom=    1.1264 (will be added to EATOM!!)
 
 
 POSCAR: Cu3Au L12 structure                     
  positions in direct lattice
  No initial velocities read in
 exchange correlation table for  LEXCH =        8
   RHO(1)=    0.500       N(1)  =     2000
   RHO(2)=  100.500       N(2)  =     4000
 


--------------------------------------------------------------------------------------------------------


 ion  position               nearest neighbor table
   1  0.000  0.000  0.000-   2 2.69   3 2.69   4 2.69   3 2.69   4 2.69   2 2.69   4 2.69   4 2.69
                             2 2.69   3 2.69   3 2.69   2 2.69
   2  0.500  0.500  0.000-   1 2.69   1 2.69   1 2.69   1 2.69
   3  0.500  0.000  0.500-   1 2.69   1 2.69   1 2.69   1 2.69
   4  0.000  0.500  0.500-   1 2.69   1 2.69   1 2.69   1 2.69
 
  LATTYP: Found a simple cubic cell.
 ALAT       =     3.8000000000
  
  Lattice vectors:
  
 A1 = (   3.8000000000,   0.0000000000,   0.0000000000)
 A2 = (   0.0000000000,   3.8000000000,   0.0000000000)
 A3 = (   0.0000000000,   0.0000000000,   3.8000000000)


Analysis of symmetry for initial positions (statically):
=====================================================================
 Subroutine PRICEL returns:
 Original cell was already a primitive cell.
 

 Routine SETGRP: Setting up the symmetry group for a 
 simple cubic supercell.


 Subroutine GETGRP returns: Found 48 space group operations
 (whereof 48 operations were pure point group operations)
 out of a pool of 48 trial point group operations.


The static configuration has the point symmetry O_h .


Analysis of symmetry for dynamics (positions and initial velocities):
=====================================================================
 Subroutine PRICEL returns:
 Original cell was already a primitive cell.
 

 Routine SETGRP: Setting up the symmetry group for a 
 simple cubic supercell.


 Subroutine GETGRP returns: Found 48 space group operations
 (whereof 48 operations were pure point group operations)
 out of a pool of 48 trial point group operations.


The dynamic configuration has the point symmetry O_h .


 Subroutine INISYM returns: Found 48 space group operations
 (whereof 48 operations are pure point group operations),
 and found     1 'primitive' translations

 
 
 KPOINTS: KPOINTS — Cu3Au (L12) quick relax     

Automatic generation of k-mesh.
Space group operators:
 irot       det(A)        alpha          n_x          n_y          n_z        tau_x        tau_y        tau_z
    1     1.000000     0.000001     1.000000     0.000000     0.000000     0.000000     0.000000     0.000000
    2    -1.000000     0.000001     1.000000     0.000000     0.000000     0.000000     0.000000     0.000000
    3     1.000000   120.000000    -0.577350    -0.577350    -0.577350     0.000000     0.000000     0.000000
    4    -1.000000   120.000000    -0.577350    -0.577350    -0.577350     0.000000     0.000000     0.000000
    5     1.000000   120.000000     0.577350     0.577350     0.577350     0.000000     0.000000     0.000000
    6    -1.000000   120.000000     0.577350     0.577350     0.577350     0.000000     0.000000     0.000000
    7     1.000000    90.000000     0.000000     0.000000    -1.000000     0.000000     0.000000     0.000000
    8    -1.000000    90.000000     0.000000     0.000000    -1.000000     0.000000     0.000000     0.000000
    9     1.000000   180.000000     0.000000     0.707107     0.707107     0.000000     0.000000     0.000000
   10    -1.000000   180.000000     0.000000     0.707107     0.707107     0.000000     0.000000     0.000000
   11     1.000000    90.000000     0.000000     1.000000     0.000000     0.000000     0.000000     0.000000
   12    -1.000000    90.000000     0.000000     1.000000     0.000000     0.000000     0.000000     0.000000
   13     1.000000   180.000000     0.000000     0.000000     1.000000     0.000000     0.000000     0.000000
   14    -1.000000   180.000000     0.000000     0.000000     1.000000     0.000000     0.000000     0.000000
   15     1.000000   120.000000    -0.577350     0.577350     0.577350     0.000000     0.000000     0.000000
   16    -1.000000   120.000000    -0.577350     0.577350     0.577350     0.000000     0.000000     0.000000
   17     1.000000   120.000000    -0.577350     0.577350    -0.577350     0.000000     0.000000     0.000000
   18    -1.000000   120.000000    -0.577350     0.577350    -0.577350     0.000000     0.000000     0.000000
   19     1.000000    90.000000     0.000000     0.000000     1.000000     0.000000     0.000000     0.000000
   20    -1.000000    90.000000     0.000000     0.000000     1.000000     0.000000     0.000000     0.000000
   21     1.000000    90.000000    -1.000000     0.000000     0.000000     0.000000     0.000000     0.000000
   22    -1.000000    90.000000    -1.000000     0.000000     0.000000     0.000000     0.000000     0.000000
   23     1.000000   180.000000     0.707107     0.000000     0.707107     0.000000     0.000000     0.000000
   24    -1.000000   180.000000     0.707107     0.000000     0.707107     0.000000     0.000000     0.000000
   25     1.000000   120.000000     0.577350    -0.577350     0.577350     0.000000     0.000000     0.000000
   26    -1.000000   120.000000     0.577350    -0.577350     0.577350     0.000000     0.000000     0.000000
   27     1.000000   120.000000    -0.577350    -0.577350     0.577350     0.000000     0.000000     0.000000
   28    -1.000000   120.000000    -0.577350    -0.577350     0.577350     0.000000     0.000000     0.000000
   29     1.000000   180.000000     1.000000     0.000000     0.000000     0.000000     0.000000     0.000000
   30    -1.000000   180.000000     1.000000     0.000000     0.000000     0.000000     0.000000     0.000000
   31     1.000000    90.000000     0.000000    -1.000000     0.000000     0.000000     0.000000     0.000000
   32    -1.000000    90.000000     0.000000    -1.000000     0.000000     0.000000     0.000000     0.000000
   33     1.000000   180.000000     0.707107     0.707107     0.000000     0.000000     0.000000     0.000000
   34    -1.000000   180.000000     0.707107     0.707107     0.000000     0.000000     0.000000     0.000000
   35     1.000000    90.000000     1.000000     0.000000     0.000000     0.000000     0.000000     0.000000
   36    -1.000000    90.000000     1.000000     0.000000     0.000000     0.000000     0.000000     0.000000
   37     1.000000   120.000000     0.577350    -0.577350    -0.577350     0.000000     0.000000     0.000000
   38    -1.000000   120.000000     0.577350    -0.577350    -0.577350     0.000000     0.000000     0.000000
   39     1.000000   180.000000     0.000000     1.000000     0.000000     0.000000     0.000000     0.000000
   40    -1.000000   180.000000     0.000000     1.000000     0.000000     0.000000     0.000000     0.000000
   41     1.000000   120.000000     0.577350     0.577350    -0.577350     0.000000     0.000000     0.000000
   42    -1.000000   120.000000     0.577350     0.577350    -0.577350     0.000000     0.000000     0.000000
   43     1.000000   180.000000     0.000000    -0.707107     0.707107     0.000000     0.000000     0.000000
   44    -1.000000   180.000000     0.000000    -0.707107     0.707107     0.000000     0.000000     0.000000
   45     1.000000   180.000000     0.707107    -0.707107     0.000000     0.000000     0.000000     0.000000
   46    -1.000000   180.000000     0.707107    -0.707107     0.000000     0.000000     0.000000     0.000000
   47     1.000000   180.000000     0.707107     0.000000    -0.707107     0.000000     0.000000     0.000000
   48    -1.000000   180.000000     0.707107     0.000000    -0.707107     0.000000     0.000000     0.000000
 
 Subroutine IBZKPT returns following result:
 ===========================================
 
 Found     10 irreducible k-points:
 
 Following reciprocal coordinates:
            Coordinates               Weight
  0.083333  0.083333  0.083333      8.000000
  0.250000  0.083333  0.083333     24.000000
  0.416667  0.083333  0.083333     24.000000
  0.250000  0.250000  0.083333     24.000000
  0.416667  0.250000  0.083333     48.000000
  0.416667  0.416667  0.083333     24.000000
  0.250000  0.250000  0.250000      8.000000
  0.416667  0.250000  0.250000     24.000000
  0.416667  0.416667  0.250000     24.000000
  0.416667  0.416667  0.416667      8.000000
 
 Following cartesian coordinates:
            Coordinates               Weight
  0.021930  0.021930  0.021930      8.000000
  0.065789  0.021930  0.021930     24.000000
  0.109649  0.021930  0.021930     24.000000
  0.065789  0.065789  0.021930     24.000000
  0.109649  0.065789  0.021930     48.000000
  0.109649  0.109649  0.021930     24.000000
  0.065789  0.065789  0.065789      8.000000
  0.109649  0.065789  0.065789     24.000000
  0.109649  0.109649  0.065789     24.000000
  0.109649  0.109649  0.109649      8.000000
 


--------------------------------------------------------------------------------------------------------




 Dimension of arrays:
   k-points           NKPTS =     10   k-points in BZ     NKDIM =     10   number of bands    NBANDS=     37
   number of dos      NEDOS =    301   number of ions     NIONS =      4
   non local maximal  LDIM  =      6   non local SUM 2l+1 LMDIM =     18
   total plane-waves  NPLWV =   4096
   max r-space proj   IRMAX =   1702   max aug-charges    IRDMAX=   4764
   dimension x,y,z NGX =    16 NGY =   16 NGZ =   16
   dimension x,y,z NGXF=    32 NGYF=   32 NGZF=   32
   support grid    NGXF=    32 NGYF=   32 NGZF=   32
   ions per type =               1   3
   NGX,Y,Z   is equivalent  to a cutoff of   7.00,  7.00,  7.00 a.u.
   NGXF,Y,Z  is equivalent  to a cutoff of  14.00, 14.00, 14.00 a.u.

 SYSTEM =  unknown system                          
 POSCAR =  Cu3Au L12 structure                     

 Startparameter for this run:
   NWRITE =      2    write-flag & timer
   PREC   = normal    normal or accurate (medium, high low for compatibility)
   ISTART =      0    job   : 0-new  1-cont  2-samecut
   ICHARG =      2    charge: 1-file 2-atom 10-const
   ISPIN  =      1    spin polarized calculation?
   LNONCOLLINEAR =      F non collinear calculations
   LSORBIT =      F    spin-orbit coupling
   INIWAV =      1    electr: 0-lowe 1-rand  2-diag
   LASPH  =      F    aspherical Exc in radial PAW
   METAGGA=      F    non-selfconsistent MetaGGA calc.

 Electronic Relaxation 1
   ENCUT  =  300.0 eV  22.05 Ry    4.70 a.u.   5.37  5.37  5.37*2*pi/ulx,y,z
   ENINI  =  300.0     initial cutoff
   ENAUG  =  758.2 eV  augmentation charge cutoff
   NELM   =     80;   NELMIN=  2; NELMDL= -5     # of ELM steps 
   EDIFF  = 0.1E-04   stopping-criterion for ELM
   LREAL  =      T    real-space projection
   NLSPLINE    = F    spline interpolate recip. space projectors
   LCOMPAT=      F    compatible to vasp.4.4
   GGA_COMPAT  = T    GGA compatible to vasp.4.4-vasp.4.6
   LMAXPAW     = -100 max onsite density
   LMAXMIX     =    2 max onsite mixed and CHGCAR
   VOSKOWN=      0    Vosko Wilk Nusair interpolation
   ROPT   =   -0.00050  -0.00050
 Ionic relaxation
   EDIFFG = -.3E-01   stopping-criterion for IOM
   NSW    =     40    number of steps for IOM
   NBLOCK =      1;   KBLOCK =     40    inner block; outer block 
   IBRION =      2    ionic relax: 0-MD 1-quasi-New 2-CG
   NFREE  =      1    steps in history (QN), initial steepest desc. (CG)
   ISIF   =      3    stress and relaxation
   IWAVPR =     11    prediction:  0-non 1-charg 2-wave 3-comb
   ISYM   =      2    0-nonsym 1-usesym 2-fastsym
   LCORR  =      T    Harris-Foulkes like correction to forces

   POTIM  = 0.5000    time-step for ionic-motion
   TEIN   =    0.0    initial temperature
   TEBEG  =    0.0;   TEEND  =   0.0 temperature during run
   SMASS  =  -3.00    Nose mass-parameter (am)
   estimated Nose-frequenzy (Omega)   =  0.10E-29 period in steps =****** mass=  -0.330E-27a.u.
   SCALEE = 1.0000    scale energy and forces
   NPACO  =    256;   APACO  = 16.0  distance and # of slots for P.C.
   PSTRESS=    0.0 pullay stress

  Mass of Ions in am
   POMASS = 196.97 63.55
  Ionic Valenz
   ZVAL   =  11.00 17.00
  Atomic Wigner-Seitz radii
   RWIGS  =  -1.00 -1.00
  virtual crystal weights 
   VCA    =   1.00  1.00
   NELECT =      62.0000    total number of electrons
   NUPDOWN=      -1.0000    fix difference up-down

 DOS related values:
   EMIN   =  10.00;   EMAX   =-10.00  energy-range for DOS
   EFERMI =   0.00
   ISMEAR =     1;   SIGMA  =   0.20  broadening in eV -4-tet -1-fermi 0-gaus

 Electronic relaxation 2 (details)
   IALGO  =     58    algorithm
   LDIAG  =      T    sub-space diagonalisation (order eigenvalues)
   LSUBROT=      F    optimize rotation matrix (better conditioning)
   TURBO    =      0    0=normal 1=particle mesh
   IRESTART =      0    0=no restart 2=restart with 2 vectors
   NREBOOT  =      0    no. of reboots
   NMIN     =      0    reboot dimension
   EREF     =   0.00    reference energy to select bands
   IMIX   =      4    mixing-type and parameters
     AMIX     =   0.02;   BMIX     =  0.00
     AMIX_MAG =   0.08;   BMIX_MAG =  0.00
     AMIN     =   0.02
     WC   =   100.;   INIMIX=   1;  MIXPRE=   1;  MAXMIX= -45

 Intra band minimization:
   WEIMIN = 0.0010     energy-eigenvalue tresh-hold
   EBREAK =  0.68E-07  absolut break condition
   DEPER  =   0.30     relativ break condition  

   TIME   =   0.40     timestep for ELM

  volume/ion in A,a.u.               =      13.72        92.57
  Fermi-wavevector in a.u.,A,eV,Ry     =   1.705121  3.222211 39.558077  2.907437
  Thomas-Fermi vector in A             =   2.784399
 
 Write flags
   LWAVE        =      F    write WAVECAR
   LDOWNSAMPLE  =      F    k-point downsampling of WAVECAR
   LCHARG       =      T    write CHGCAR
   LVTOT        =      F    write LOCPOT, total local potential
   LVHAR        =      F    write LOCPOT, Hartree potential only
   LELF         =      F    write electronic localiz. function (ELF)
   LORBIT       =      0    0 simple, 1 ext, 2 COOP (PROOUT), +10 PAW based schemes


 Dipole corrections
   LMONO  =      F    monopole corrections only (constant potential shift)
   LDIPOL =      F    correct potential (dipole corrections)
   IDIPOL =      0    1-x, 2-y, 3-z, 4-all directions 
   EPSILON=  1.0000000 bulk dielectric constant

 Exchange correlation treatment:
   GGA     =    --    GGA type
   LEXCH   =     8    internal setting for exchange type
   VOSKOWN=      0    Vosko Wilk Nusair interpolation
   LHFCALC =     F    Hartree Fock is set to
   LHFONE  =     F    Hartree Fock one center treatment
   AEXX    =    0.0000 exact exchange contribution

 Linear response parameters
   LEPSILON=     F    determine dielectric tensor
   LRPA    =     F    only Hartree local field effects (RPA)
   LNABLA  =     F    use nabla operator in PAW spheres
   LVEL    =     F    velocity operator in full k-point grid
   LINTERFAST=   F  fast interpolation
   KINTER  =     0    interpolate to denser k-point grid
   CSHIFT  =0.1000    complex shift for real part using Kramers Kronig
   OMEGAMAX=  -1.0    maximum frequency
   DEG_THRESHOLD= 0.2000000E-02 threshold for treating states as degnerate
   RTIME   =   -0.100 relaxation time in fs
  (WPLASMAI=    0.000 imaginary part of plasma frequency in eV, 0.658/RTIME)
   DFIELD  = 0.0000000 0.0000000 0.0000000 field for delta impulse in time
 
 Orbital magnetization related:
   ORBITALMAG=     F  switch on orbital magnetization
   LCHIMAG   =     F  perturbation theory with respect to B field
   DQ        =  0.001000  dq finite difference perturbation B field
   LLRAUG    =     F  two centre corrections for induced B field



--------------------------------------------------------------------------------------------------------


 conjugate gradient relaxation of ions
 charge density and potential will be updated during run
 non-spin polarized calculation
 Conjugate gradient for all bands (Freysoldt, et al. PRB 79, 241103 (2009))
 preconditioned conjugated gradient                                        
 perform sub-space diagonalisation
    before iterative eigenvector-optimisation
 modified Broyden-mixing scheme, WC =      100.0
 initial mixing is a Kerker type mixing with AMIX =  0.0200 and BMIX =      0.0001
 Hartree-type preconditioning will be used
 using additional bands            6
 real space projection scheme for non local part
 use partial core corrections
 no Harris-corrections to forces 
 use gradient corrections 
 use of overlap-Matrix (Vanderbilt PP)
 Methfessel and Paxton  Order N= 1 SIGMA  =   0.20


--------------------------------------------------------------------------------------------------------


  energy-cutoff  :      300.00
  volume of cell :       54.87
      direct lattice vectors                 reciprocal lattice vectors
     3.800000000  0.000000000  0.000000000     0.263157895  0.000000000  0.000000000
     0.000000000  3.800000000  0.000000000     0.000000000  0.263157895  0.000000000
     0.000000000  0.000000000  3.800000000     0.000000000  0.000000000  0.263157895

  length of vectors
     3.800000000  3.800000000  3.800000000     0.263157895  0.263157895  0.263157895


 
 k-points in units of 2pi/SCALE and weight: KPOINTS — Cu3Au (L12) quick relax     
   0.02192982  0.02192982  0.02192982       0.037
   0.06578947  0.02192982  0.02192982       0.111
   0.10964912  0.02192982  0.02192982       0.111
   0.06578947  0.06578947  0.02192982       0.111
   0.10964912  0.06578947  0.02192982       0.222
   0.10964912  0.10964912  0.02192982       0.111
   0.06578947  0.06578947  0.06578947       0.037
   0.10964912  0.06578947  0.06578947       0.111
   0.10964912  0.10964912  0.06578947       0.111
   0.10964912  0.10964912  0.10964912       0.037
 
 k-points in reciprocal lattice and weights: KPOINTS — Cu3Au (L12) quick relax     
   0.08333333  0.08333333  0.08333333       0.037
   0.25000000  0.08333333  0.08333333       0.111
   0.41666667  0.08333333  0.08333333       0.111
   0.25000000  0.25000000  0.08333333       0.111
   0.41666667  0.25000000  0.08333333       0.222
   0.41666667  0.41666667  0.08333333       0.111
   0.25000000  0.25000000  0.25000000       0.037
   0.41666667  0.25000000  0.25000000       0.111
   0.41666667  0.41666667  0.25000000       0.111
   0.41666667  0.41666667  0.41666667       0.037
 
 position of ions in fractional coordinates (direct lattice) 
   0.00000000  0.00000000  0.00000000
   0.50000000  0.50000000  0.00000000
   0.50000000  0.00000000  0.50000000
   0.00000000  0.50000000  0.50000000
 
 position of ions in cartesian coordinates  (Angst):
   0.00000000  0.00000000  0.00000000
   1.90000000  1.90000000  0.00000000
   1.90000000  0.00000000  1.90000000
   0.00000000  1.90000000  1.90000000
 


--------------------------------------------------------------------------------------------------------


 k-point  1 :   0.0833 0.0833 0.0833  plane waves:     655
 k-point  2 :   0.2500 0.0833 0.0833  plane waves:     660
 k-point  3 :   0.4167 0.0833 0.0833  plane waves:     644
 k-point  4 :   0.2500 0.2500 0.0833  plane waves:     651
 k-point  5 :   0.4167 0.2500 0.0833  plane waves:     645
 k-point  6 :   0.4167 0.4167 0.0833  plane waves:     648
 k-point  7 :   0.2500 0.2500 0.2500  plane waves:     654
 k-point  8 :   0.4167 0.2500 0.2500  plane waves:     648
 k-point  9 :   0.4167 0.4167 0.2500  plane waves:     645
 k-point 10 :   0.4167 0.4167 0.4167  plane waves:     648

 maximum and minimum number of plane-waves per node :       660      644

 maximum number of plane-waves:       660
 maximum index in each direction: 
   IXMAX=    5   IYMAX=    5   IZMAX=    5
   IXMIN=   -5   IYMIN=   -5   IZMIN=   -5


 serial   3D FFT for wavefunctions
 parallel 3D FFT for charge:
    minimum data exchange during FFTs selected (reduces bandwidth)


 total amount of memory used by VASP MPI-rank0    47276. kBytes
=======================================================================

   base      :      30000. kBytes
   nonlr-proj:        947. kBytes
   fftplans  :       1184. kBytes
   grid      :       2084. kBytes
   one-center:         62. kBytes
   wavefun   :      12999. kBytes
 
     INWAV:  cpu time    0.0000: real time    0.0000
 Broyden mixing: mesh for mixing (old mesh)
   NGX = 11   NGY = 11   NGZ = 11
  (NGX  = 32   NGY  = 32   NGZ  = 32)
  gives a total of   1331 points

 initial charge density was supplied:
 charge density of overlapping atoms calculated
 number of electron      62.0000000 magnetization 
 keeping initial charge density in first step


--------------------------------------------------------------------------------------------------------


 Maximum index for non-local projection operator         1575
 Maximum index for augmentation-charges         4385 (set IRDMAX)


--------------------------------------------------------------------------------------------------------


 First call to EWALD:  gamma=   0.466
 Maximum number of real-space cells 3x 3x 3
 Maximum number of reciprocal cells 3x 3x 3

    FEWALD:  cpu time    0.0011: real time    0.0011


--------------------------------------- Iteration      1(   1)  ---------------------------------------


    POTLOK:  cpu time    0.0097: real time    0.0096
    SETDIJ:  cpu time    0.0045: real time    0.0045
    TRIAL :  cpu time    0.1798: real time    0.3803
    CORREC:  cpu time    0.0007: real time    0.0007
    --------------------------------------------
      LOOP:  cpu time    0.1964: real time    0.3968

 eigenvalue-minimisations  :   884
 total energy-change (2. order) : 0.5970037E+03  (-0.3098931E+04)
 number of electron      62.0000000 magnetization 
 augmentation part       62.0000000 magnetization 

 Free energy of the ion-electron system (eV)
  ---------------------------------------------------
  alpha Z        PSCENC =       553.11052850
  Ewald energy   TEWEN  =     -8463.53449700
  -Hartree energ DENC   =     -4388.70881502
  -exchange      EXHF   =         0.00000000
  -V(xc)+E(xc)   XCENC  =       339.61575690
  PAW double counting   =     10439.60561056   -10863.16027776
  entropy T*S    EENTRO =        -0.00772531
  eigenvalues    EBANDS =      -300.11966736
  atomic energy  EATOM  =     13280.20280305
  ---------------------------------------------------
  free energy    TOTEN  =       597.00371656 eV

  energy without entropy =      597.01144188  energy(sigma->0) =      597.00629167


--------------------------------------------------------------------------------------------------------




--------------------------------------- Iteration      1(   2)  ---------------------------------------


    TRIAL :  cpu time    0.1579: real time    0.3081
    CORREC:  cpu time    0.0007: real time    0.0007
    --------------------------------------------
      LOOP:  cpu time    0.1589: real time    0.3091

 eigenvalue-minimisations  :   778
 total energy-change (2. order) :-0.5838619E+03  (-0.5623458E+03)
 number of electron      62.0000000 magnetization 
 augmentation part       62.0000000 magnetization 

 Free energy of the ion-electron system (eV)
  ---------------------------------------------------
  alpha Z        PSCENC =       553.11052850
  Ewald energy   TEWEN  =     -8463.53449700
  -Hartree energ DENC   =     -4388.70881502
  -exchange      EXHF   =         0.00000000
  -V(xc)+E(xc)   XCENC  =       339.61575690
  PAW double counting   =     10439.60561056   -10863.16027776
  entropy T*S    EENTRO =        -0.00453668
  eigenvalues    EBANDS =      -883.98472109
  atomic energy  EATOM  =     13280.20280305
  ---------------------------------------------------
  free energy    TOTEN  =        13.14185146 eV

  energy without entropy =       13.14638814  energy(sigma->0) =       13.14336369


--------------------------------------------------------------------------------------------------------




--------------------------------------- Iteration      1(   3)  ---------------------------------------


    TRIAL :  cpu time    0.1716: real time    0.3602
    CORREC:  cpu time    0.0008: real time    0.0008
    --------------------------------------------
      LOOP:  cpu time    0.1728: real time    0.3739

 eigenvalue-minimisations  :   856
 total energy-change (2. order) :-0.2976204E+02  (-0.2779054E+02)
 number of electron      62.0000000 magnetization 
 augmentation part       62.0000000 magnetization 

 Free energy of the ion-electron system (eV)
  ---------------------------------------------------
  alpha Z        PSCENC =       553.11052850
  Ewald energy   TEWEN  =     -8463.53449700
  -Hartree energ DENC   =     -4388.70881502
  -exchange      EXHF   =         0.00000000
  -V(xc)+E(xc)   XCENC  =       339.61575690
  PAW double counting   =     10439.60561056   -10863.16027776
  entropy T*S    EENTRO =        -0.00306897
  eigenvalues    EBANDS =      -913.74822771
  atomic energy  EATOM  =     13280.20280305
  ---------------------------------------------------
  free energy    TOTEN  =       -16.62018744 eV

  energy without entropy =      -16.61711847  energy(sigma->0) =      -16.61916445


--------------------------------------------------------------------------------------------------------




--------------------------------------- Iteration      1(   4)  ---------------------------------------


    TRIAL :  cpu time    0.1678: real time    0.3171
    CORREC:  cpu time    0.0008: real time    0.0008
    --------------------------------------------
      LOOP:  cpu time    0.1688: real time    0.3182

 eigenvalue-minimisations  :   795
 total energy-change (2. order) :-0.8739393E+00  (-0.8350425E+00)
 number of electron      62.0000000 magnetization 
 augmentation part       62.0000000 magnetization 

 Free energy of the ion-electron system (eV)
  ---------------------------------------------------
  alpha Z        PSCENC =       553.11052850
  Ewald energy   TEWEN  =     -8463.53449700
  -Hartree energ DENC   =     -4388.70881502
  -exchange      EXHF   =         0.00000000
  -V(xc)+E(xc)   XCENC  =       339.61575690
  PAW double counting   =     10439.60561056   -10863.16027776
  entropy T*S    EENTRO =        -0.00223895
  eigenvalues    EBANDS =      -914.62299702
  atomic energy  EATOM  =     13280.20280305
  ---------------------------------------------------
  free energy    TOTEN  =       -17.49412674 eV

  energy without entropy =      -17.49188779  energy(sigma->0) =      -17.49338042


--------------------------------------------------------------------------------------------------------




--------------------------------------- Iteration      1(   5)  ---------------------------------------


    TRIAL :  cpu time    0.1589: real time    0.3081
    CORREC:  cpu time    0.0008: real time    0.0008
    CHARGE:  cpu time    0.0100: real time    0.0100
    --------------------------------------------
      LOOP:  cpu time    0.1700: real time    0.3196

 eigenvalue-minimisations  :   785
 total energy-change (2. order) :-0.1194209E-01  (-0.1194175E-01)
 number of electron      61.9998811 magnetization 
 augmentation part       34.7987474 magnetization 

 Free energy of the ion-electron system (eV)
  ---------------------------------------------------
  alpha Z        PSCENC =       553.11052850
  Ewald energy   TEWEN  =     -8463.53449700
  -Hartree energ DENC   =     -4388.70881502
  -exchange      EXHF   =         0.00000000
  -V(xc)+E(xc)   XCENC  =       339.61575690
  PAW double counting   =     10439.60561056   -10863.16027776
  entropy T*S    EENTRO =        -0.00224757
  eigenvalues    EBANDS =      -914.63493049
  atomic energy  EATOM  =     13280.20280305
  ---------------------------------------------------
  free energy    TOTEN  =       -17.50606883 eV

  energy without entropy =      -17.50382125  energy(sigma->0) =      -17.50531964


--------------------------------------------------------------------------------------------------------




--------------------------------------- Iteration      1(   6)  ---------------------------------------


    POTLOK:  cpu time    0.0104: real time    0.0605
    SETDIJ:  cpu time    0.0049: real time    0.0049
    TRIAL :  cpu time    0.1102: real time    0.2104
    CORREC:  cpu time    0.0466: real time    0.0966
    CHARGE:  cpu time    0.0085: real time    0.0085
    --------------------------------------------
      LOOP:  cpu time    0.1809: real time    0.3815

 eigenvalue-minimisations  :     0
 total energy-change (2. order) : 0.1295500E+02  (-0.9121743E+01)
 number of electron      61.9998753 magnetization 
 augmentation part       36.2252199 magnetization 

 Free energy of the ion-electron system (eV)
  ---------------------------------------------------
  alpha Z        PSCENC =       553.11052850
  Ewald energy   TEWEN  =     -8463.53449700
  -Hartree energ DENC   =     -3922.33154820
  -exchange      EXHF   =         0.00000000
  -V(xc)+E(xc)   XCENC  =       322.78223169
  PAW double counting   =      9849.12188500   -10236.44336459
  entropy T*S    EENTRO =        -0.00500077
  eigenvalues    EBANDS =     -1387.45685861
  atomic energy  EATOM  =     13280.20280305
  ---------------------------------------------------
  free energy    TOTEN  =        -4.55106773 eV

  energy without entropy =       -4.54606697  energy(sigma->0) =       -4.54940081


--------------------------------------------------------------------------------------------------------




--------------------------------------- Iteration      1(   7)  ---------------------------------------


    POTLOK:  cpu time    0.0089: real time    0.0088
    SETDIJ:  cpu time    0.0043: real time    0.0043
    TRIAL :  cpu time    0.1004: real time    0.2005
    CORREC:  cpu time    0.0465: real time    0.0966
    CHARGE:  cpu time    0.0084: real time    0.0084
    --------------------------------------------
      LOOP:  cpu time    0.1688: real time    0.3189

 eigenvalue-minimisations  :     0
 total energy-change (2. order) :-0.8682531E+01  (-0.7828937E+00)
 number of electron      61.9998754 magnetization 
 augmentation part       36.3599256 magnetization 

 Free energy of the ion-electron system (eV)
  ---------------------------------------------------
  alpha Z        PSCENC =       553.11052850
  Ewald energy   TEWEN  =     -8463.53449700
  -Hartree energ DENC   =     -4224.06711212
  -exchange      EXHF   =         0.00000000
  -V(xc)+E(xc)   XCENC  =       333.47878803
  PAW double counting   =     10273.17114889   -10710.52441130
  entropy T*S    EENTRO =        -0.00254289
  eigenvalues    EBANDS =     -1055.06584585
  atomic energy  EATOM  =     13280.20280305
  ---------------------------------------------------
  free energy    TOTEN  =       -13.23359857 eV

  energy without entropy =      -13.23105569  energy(sigma->0) =      -13.23275094


--------------------------------------------------------------------------------------------------------




--------------------------------------- Iteration      1(   8)  ---------------------------------------


    POTLOK:  cpu time    0.0085: real time    0.0575
    SETDIJ:  cpu time    0.0042: real time    0.0042
    TRIAL :  cpu time    0.1014: real time    0.2036
    CORREC:  cpu time    0.0466: real time    0.0966
    CHARGE:  cpu time    0.0087: real time    0.0087
    --------------------------------------------
      LOOP:  cpu time    0.1697: real time    0.3713

 eigenvalue-minimisations  :     0
 total energy-change (2. order) :-0.7817960E+00  (-0.2817421E+00)
 number of electron      61.9998751 magnetization 
 augmentation part       36.4256406 magnetization 

 Free energy of the ion-electron system (eV)
  ---------------------------------------------------
  alpha Z        PSCENC =       553.11052850
  Ewald energy   TEWEN  =     -8463.53449700
  -Hartree energ DENC   =     -4241.23736137
  -exchange      EXHF   =         0.00000000
  -V(xc)+E(xc)   XCENC  =       334.25204954
  PAW double counting   =     10322.97706039   -10757.40292286
  entropy T*S    EENTRO =        -0.00212265
  eigenvalues    EBANDS =     -1042.38051198
  atomic energy  EATOM  =     13280.20280305
  ---------------------------------------------------
  free energy    TOTEN  =       -14.01539461 eV

  energy without entropy =      -14.01327196  energy(sigma->0) =      -14.01468706


--------------------------------------------------------------------------------------------------------




--------------------------------------- Iteration      1(   9)  ---------------------------------------


    POTLOK:  cpu time    0.0085: real time    0.0085
    SETDIJ:  cpu time    0.0042: real time    0.0042
    TRIAL :  cpu time    0.1006: real time    0.1998
    CORREC:  cpu time    0.0467: real time    0.0968
    CHARGE:  cpu time    0.0084: real time    0.0085
    --------------------------------------------
      LOOP:  cpu time    0.1688: real time    0.3185

 eigenvalue-minimisations  :     0
 total energy-change (2. order) :-0.2822811E+00  (-0.1906834E+00)
 number of electron      61.9998746 magnetization 
 augmentation part       36.4434667 magnetization 

 Free energy of the ion-electron system (eV)
  ---------------------------------------------------
  alpha Z        PSCENC =       553.11052850
  Ewald energy   TEWEN  =     -8463.53449700
  -Hartree energ DENC   =     -4253.94539824
  -exchange      EXHF   =         0.00000000
  -V(xc)+E(xc)   XCENC  =       334.75094989
  PAW double counting   =     10369.59607435   -10800.09552886
  entropy T*S    EENTRO =        -0.00732971
  eigenvalues    EBANDS =     -1034.38048472
  atomic energy  EATOM  =     13280.20280305
  ---------------------------------------------------
  free energy    TOTEN  =       -14.29767569 eV

  energy without entropy =      -14.29034598  energy(sigma->0) =      -14.29523245


--------------------------------------------------------------------------------------------------------




--------------------------------------- Iteration      1(  10)  ---------------------------------------


    POTLOK:  cpu time    0.0086: real time    0.0085
    SETDIJ:  cpu time    0.0042: real time    0.0042
    TRIAL :  cpu time    0.1012: real time    0.2003
    CORREC:  cpu time    0.0461: real time    0.0962
    CHARGE:  cpu time    0.0083: real time    0.0584
    --------------------------------------------
      LOOP:  cpu time    0.1688: real time    0.3773

 eigenvalue-minimisations  :     0
 total energy-change (2. order) :-0.1911073E+00  (-0.2922389E-01)
 number of electron      61.9998745 magnetization 
 augmentation part       36.4454638 magnetization 

 Free energy of the ion-electron system (eV)
  ---------------------------------------------------
  alpha Z        PSCENC =       553.11052850
  Ewald energy   TEWEN  =     -8463.53449700
  -Hartree energ DENC   =     -4269.36470450
  -exchange      EXHF   =         0.00000000
  -V(xc)+E(xc)   XCENC  =       335.20605507
  PAW double counting   =     10415.51594439   -10842.91808699
  entropy T*S    EENTRO =        -0.00859057
  eigenvalues    EBANDS =     -1022.69949583
  atomic energy  EATOM  =     13280.20280305
  ---------------------------------------------------
  free energy    TOTEN  =       -14.48878302 eV

  energy without entropy =      -14.48019245  energy(sigma->0) =      -14.48591950


--------------------------------------------------------------------------------------------------------




--------------------------------------- Iteration      1(  11)  ---------------------------------------


    POTLOK:  cpu time    0.0084: real time    0.0084
    SETDIJ:  cpu time    0.0042: real time    0.0042
    TRIAL :  cpu time    0.0999: real time    0.1920
    CORREC:  cpu time    0.0458: real time    0.0948
    CHARGE:  cpu time    0.0086: real time    0.0086
    --------------------------------------------
      LOOP:  cpu time    0.1671: real time    0.3083

 eigenvalue-minimisations  :     0
 total energy-change (2. order) :-0.2922411E-01  (-0.9136207E-02)
 number of electron      61.9998745 magnetization 
 augmentation part       36.4614907 magnetization 

 Free energy of the ion-electron system (eV)
  ---------------------------------------------------
  alpha Z        PSCENC =       553.11052850
  Ewald energy   TEWEN  =     -8463.53449700
  -Hartree energ DENC   =     -4270.00504376
  -exchange      EXHF   =         0.00000000
  -V(xc)+E(xc)   XCENC  =       335.22306906
  PAW double counting   =     10417.19886375   -10844.22674388
  entropy T*S    EENTRO =        -0.00911118
  eigenvalues    EBANDS =     -1022.47839628
  atomic energy  EATOM  =     13280.20280305
  ---------------------------------------------------
  free energy    TOTEN  =       -14.51800713 eV

  energy without entropy =      -14.50889596  energy(sigma->0) =      -14.51497007


--------------------------------------------------------------------------------------------------------




--------------------------------------- Iteration      1(  12)  ---------------------------------------


    POTLOK:  cpu time    0.0084: real time    0.0085
    SETDIJ:  cpu time    0.0043: real time    0.0043
    TRIAL :  cpu time    0.1015: real time    0.2016
    CORREC:  cpu time    0.0462: real time    0.0962
    CHARGE:  cpu time    0.0087: real time    0.0086
    --------------------------------------------
      LOOP:  cpu time    0.1694: real time    0.3195

 eigenvalue-minimisations  :     0
 total energy-change (2. order) :-0.9129047E-02  (-0.1876118E-02)
 number of electron      61.9998745 magnetization 
 augmentation part       36.4610966 magnetization 

 Free energy of the ion-electron system (eV)
  ---------------------------------------------------
  alpha Z        PSCENC =       553.11052850
  Ewald energy   TEWEN  =     -8463.53449700
  -Hartree energ DENC   =     -4270.15675876
  -exchange      EXHF   =         0.00000000
  -V(xc)+E(xc)   XCENC  =       335.25335551
  PAW double counting   =     10414.26872919   -10841.72418515
  entropy T*S    EENTRO =        -0.00923178
  eigenvalues    EBANDS =     -1021.93800034
  atomic energy  EATOM  =     13280.20280305
  ---------------------------------------------------
  free energy    TOTEN  =       -14.52713618 eV

  energy without entropy =      -14.51790440  energy(sigma->0) =      -14.52405892


--------------------------------------------------------------------------------------------------------




--------------------------------------- Iteration      1(  13)  ---------------------------------------


    POTLOK:  cpu time    0.0085: real time    0.0085
    SETDIJ:  cpu time    0.0045: real time    0.0535
    TRIAL :  cpu time    0.1009: real time    0.2011
    CORREC:  cpu time    0.0458: real time    0.0458
    CHARGE:  cpu time    0.0092: real time    0.0602
    --------------------------------------------
      LOOP:  cpu time    0.1693: real time    0.3699

 eigenvalue-minimisations  :     0
 total energy-change (2. order) :-0.1876415E-02  (-0.3710680E-03)
 number of electron      61.9998745 magnetization 
 augmentation part       36.4610370 magnetization 

 Free energy of the ion-electron system (eV)
  ---------------------------------------------------
  alpha Z        PSCENC =       553.11052850
  Ewald energy   TEWEN  =     -8463.53449700
  -Hartree energ DENC   =     -4269.48314753
  -exchange      EXHF   =         0.00000000
  -V(xc)+E(xc)   XCENC  =       335.23303192
  PAW double counting   =     10411.73493195   -10839.25856252
  entropy T*S    EENTRO =        -0.00927139
  eigenvalues    EBANDS =     -1022.52486919
  atomic energy  EATOM  =     13280.20280305
  ---------------------------------------------------
  free energy    TOTEN  =       -14.52901259 eV

  energy without entropy =      -14.51974120  energy(sigma->0) =      -14.52592213


--------------------------------------------------------------------------------------------------------




--------------------------------------- Iteration      1(  14)  ---------------------------------------


    POTLOK:  cpu time    0.0086: real time    0.0086
    SETDIJ:  cpu time    0.0042: real time    0.0042
    TRIAL :  cpu time    0.1012: real time    0.2003
    CORREC:  cpu time    0.0463: real time    0.0963
    CHARGE:  cpu time    0.0086: real time    0.0086
    --------------------------------------------
      LOOP:  cpu time    0.1691: real time    0.3189

 eigenvalue-minimisations  :     0
 total energy-change (2. order) :-0.3719572E-03  (-0.9234890E-04)
 number of electron      61.9998745 magnetization 
 augmentation part       36.4601780 magnetization 

 Free energy of the ion-electron system (eV)
  ---------------------------------------------------
  alpha Z        PSCENC =       553.11052850
  Ewald energy   TEWEN  =     -8463.53449700
  -Hartree energ DENC   =     -4269.62728961
  -exchange      EXHF   =         0.00000000
  -V(xc)+E(xc)   XCENC  =       335.23703539
  PAW double counting   =     10411.54337778   -10839.14176293
  entropy T*S    EENTRO =        -0.00927999
  eigenvalues    EBANDS =     -1022.31030834
  atomic energy  EATOM  =     13280.20280305
  ---------------------------------------------------
  free energy    TOTEN  =       -14.52938455 eV

  energy without entropy =      -14.52010456  energy(sigma->0) =      -14.52629122


--------------------------------------------------------------------------------------------------------




--------------------------------------- Iteration      1(  15)  ---------------------------------------


    POTLOK:  cpu time    0.0085: real time    0.0085
    SETDIJ:  cpu time    0.0044: real time    0.0043
    TRIAL :  cpu time    0.1013: real time    0.2005
    CORREC:  cpu time    0.0462: real time    0.0964
    CHARGE:  cpu time    0.0087: real time    0.0086
    --------------------------------------------
      LOOP:  cpu time    0.1694: real time    0.3189

 eigenvalue-minimisations  :     0
 total energy-change (2. order) :-0.9258656E-04  (-0.3026754E-04)
 number of electron      61.9998745 magnetization 
 augmentation part       36.4613748 magnetization 

 Free energy of the ion-electron system (eV)
  ---------------------------------------------------
  alpha Z        PSCENC =       553.11052850
  Ewald energy   TEWEN  =     -8463.53449700
  -Hartree energ DENC   =     -4269.28306759
  -exchange      EXHF   =         0.00000000
  -V(xc)+E(xc)   XCENC  =       335.22715582
  PAW double counting   =     10411.14080367   -10838.69456180
  entropy T*S    EENTRO =        -0.00929568
  eigenvalues    EBANDS =     -1022.68936181
  atomic energy  EATOM  =     13280.20280305
  ---------------------------------------------------
  free energy    TOTEN  =       -14.52947714 eV

  energy without entropy =      -14.52018146  energy(sigma->0) =      -14.52637858


--------------------------------------------------------------------------------------------------------




--------------------------------------- Iteration      1(  16)  ---------------------------------------


    POTLOK:  cpu time    0.0085: real time    0.0576
    SETDIJ:  cpu time    0.0043: real time    0.0043
    TRIAL :  cpu time    0.1014: real time    0.2025
    CORREC:  cpu time    0.0468: real time    0.0968
    CHARGE:  cpu time    0.0086: real time    0.0087
    --------------------------------------------
      LOOP:  cpu time    0.1698: real time    0.3701

 eigenvalue-minimisations  :     0
 total energy-change (2. order) :-0.3016240E-04  (-0.1166792E-04)
 number of electron      61.9998745 magnetization 
 augmentation part       36.4603756 magnetization 

 Free energy of the ion-electron system (eV)
  ---------------------------------------------------
  alpha Z        PSCENC =       553.11052850
  Ewald energy   TEWEN  =     -8463.53449700
  -Hartree energ DENC   =     -4269.53576107
  -exchange      EXHF   =         0.00000000
  -V(xc)+E(xc)   XCENC  =       335.23640954
  PAW double counting   =     10411.56858643   -10839.17248542
  entropy T*S    EENTRO =        -0.00929767
  eigenvalues    EBANDS =     -1022.39579565
  atomic energy  EATOM  =     13280.20280305
  ---------------------------------------------------
  free energy    TOTEN  =       -14.52950730 eV

  energy without entropy =      -14.52020963  energy(sigma->0) =      -14.52640808


--------------------------------------------------------------------------------------------------------




--------------------------------------- Iteration      1(  17)  ---------------------------------------


    POTLOK:  cpu time    0.0084: real time    0.0084
    SETDIJ:  cpu time    0.0042: real time    0.0042
    TRIAL :  cpu time    0.1012: real time    0.2004
    CORREC:  cpu time    0.0467: real time    0.0977
    CHARGE:  cpu time    0.0088: real time    0.0088
    --------------------------------------------
      LOOP:  cpu time    0.1696: real time    0.3203

 eigenvalue-minimisations  :     0
 total energy-change (2. order) :-0.1141555E-04  (-0.3839711E-05)
 number of electron      61.9998745 magnetization 
 augmentation part       36.4607734 magnetization 

 Free energy of the ion-electron system (eV)
  ---------------------------------------------------
  alpha Z        PSCENC =       553.11052850
  Ewald energy   TEWEN  =     -8463.53449700
  -Hartree energ DENC   =     -4269.31219202
  -exchange      EXHF   =         0.00000000
  -V(xc)+E(xc)   XCENC  =       335.22838995
  PAW double counting   =     10411.30931958   -10838.87616769
  entropy T*S    EENTRO =        -0.00930503
  eigenvalues    EBANDS =     -1022.64840542
  atomic energy  EATOM  =     13280.20280305
  ---------------------------------------------------
  free energy    TOTEN  =       -14.52951872 eV

  energy without entropy =      -14.52021369  energy(sigma->0) =      -14.52641704


--------------------------------------------------------------------------------------------------------




--------------------------------------- Iteration      1(  18)  ---------------------------------------


    POTLOK:  cpu time    0.0087: real time    0.0086
    SETDIJ:  cpu time    0.0042: real time    0.0537
    TRIAL :  cpu time    0.1023: real time    0.2025
    CORREC:  cpu time    0.0461: real time    0.0462
    EDDIAG:  cpu time    0.0205: real time    0.0706
    CHARGE:  cpu time    0.0087: real time    0.0087
    --------------------------------------------
      LOOP:  cpu time    0.1910: real time    0.3911

 eigenvalue-minimisations  :     0
 total energy-change (2. order) :-0.3780396E-05  (-0.1262176E-05)
 number of electron      61.9998745 magnetization 
 augmentation part       36.4606811 magnetization 

 Free energy of the ion-electron system (eV)
  ---------------------------------------------------
  alpha Z        PSCENC =       553.11052850
  Ewald energy   TEWEN  =     -8463.53449700
  -Hartree energ DENC   =     -4269.40181912
  -exchange      EXHF   =         0.00000000
  -V(xc)+E(xc)   XCENC  =       335.23134584
  PAW double counting   =     10411.43166333   -10839.01502107
  entropy T*S    EENTRO =        -0.00930687
  eigenvalues    EBANDS =     -1022.54522100
  atomic energy  EATOM  =     13280.20280305
  ---------------------------------------------------
  free energy    TOTEN  =       -14.52952250 eV

  energy without entropy =      -14.52021563  energy(sigma->0) =      -14.52642021


--------------------------------------------------------------------------------------------------------


  average scaling for gradient   0.8600


 average (electrostatic) potential at core
  the test charge radii are     1.2098  0.8297
  (the norm of the test charge is              1.0000)
       1 -45.6660       2 -80.4293       3 -80.4293       4 -80.4293
 
 
 
 E-fermi :   5.9449     XC(G=0): -12.6931     alpha+bet :-11.3544


 k-point     1 :       0.0833    0.0833    0.0833
  band No.  band energies     occupation 
      1     -63.6459      2.00000
      2     -63.6396      2.00000
      3     -63.6396      2.00000
      4     -63.6142      2.00000
      5     -63.6142      2.00000
      6     -63.5876      2.00000
      7     -63.5610      2.00000
      8     -63.5610      2.00000
      9     -63.5443      2.00000
     10      -2.9227      2.00000
     11       0.0494      2.00000
     12       0.0494      2.00000
     13       0.7474      2.00000
     14       0.7474      2.00000
     15       0.7769      2.00000
     16       1.7439      2.00000
     17       2.9323      2.00000
     18       3.0347      2.00000
     19       3.0347      2.00000
     20       3.7568      2.00000
     21       3.7568      2.00000
     22       4.2057      2.00000
     23       4.2360      2.00000
     24       4.2360      2.00000
     25       4.2805      2.00000
     26       4.2805      2.00000
     27       4.2962      2.00000
     28       4.4851      2.00000
     29       4.5317      2.00000
     30       4.5317      2.00000
     31       7.3420     -0.00000
     32       7.4124     -0.00000
     33       7.4124     -0.00000
     34      12.7447      0.00000
     35      13.8811      0.00000
     36      13.8811      0.00000
     37      16.4338      0.00000

 k-point     2 :       0.2500    0.0833    0.0833
  band No.  band energies     occupation 
      1     -63.6444      2.00000
      2     -63.6397      2.00000
      3     -63.6327      2.00000
      4     -63.6296      2.00000
      5     -63.6095      2.00000
      6     -63.6076      2.00000
      7     -63.5921      2.00000
      8     -63.5824      2.00000
      9     -63.5814      2.00000
     10      -2.3038      2.00000
     11       0.2453      2.00000
     12       0.2860      2.00000
     13       0.8429      2.00000
     14       0.8615      2.00000
     15       0.9249      2.00000
     16       1.8788      2.00000
     17       2.8010      2.00000
     18       3.1127      2.00000
     19       3.1242      2.00000
     20       3.4713      2.00000
     21       3.5649      2.00000
     22       3.6229      2.00000
     23       3.8522      2.00000
     24       3.8522      2.00000
     25       4.0654      2.00000
     26       4.0725      2.00000
     27       4.1068      2.00000
     28       4.3840      2.00000
     29       4.4474      2.00000
     30       4.5071      2.00000
     31       5.2809      2.00003
     32       8.5715     -0.00000
     33       8.6959     -0.00000
     34      13.4816      0.00000
     35      13.6104      0.00000
     36      14.3027      0.00000
     37      14.8354      0.00000

 k-point     3 :       0.4167    0.0833    0.0833
  band No.  band energies     occupation 
      1     -63.6272      2.00000
      2     -63.6205      2.00000
      3     -63.6079      2.00000
      4     -63.6031      2.00000
      5     -63.5860      2.00000
      6     -63.5819      2.00000
      7     -63.5736      2.00000
      8     -63.5601      2.00000
      9     -63.5321      2.00000
     10      -1.2668      2.00000
     11       0.2121      2.00000
     12       0.4868      2.00000
     13       0.9748      2.00000
     14       0.9897      2.00000
     15       1.1649      2.00000
     16       2.0885      2.00000
     17       2.6430      2.00000
     18       2.7118      2.00000
     19       2.8908      2.00000
     20       2.9425      2.00000
     21       3.3647      2.00000
     22       3.4535      2.00000
     23       3.6590      2.00000
     24       3.7755      2.00000
     25       3.8148      2.00000
     26       3.8889      2.00000
     27       4.0331      2.00000
     28       4.1333      2.00000
     29       4.2276      2.00000
     30       4.4291      2.00000
     31       4.5001      2.00000
     32      10.1897     -0.00000
     33      10.3995     -0.00000
     34      12.0834      0.00000
     35      12.2501      0.00000
     36      14.3795      0.00000
     37      14.4027      0.00000

 k-point     4 :       0.2500    0.2500    0.0833
  band No.  band energies     occupation 
      1     -63.6221      2.00000
      2     -63.6160      2.00000
      3     -63.6141      2.00000
      4     -63.6005      2.00000
      5     -63.5981      2.00000
      6     -63.5914      2.00000
      7     -63.5902      2.00000
      8     -63.5785      2.00000
      9     -63.5693      2.00000
     10      -1.7193      2.00000
     11       0.3676      2.00000
     12       0.5585      2.00000
     13       0.9068      2.00000
     14       0.9301      2.00000
     15       1.0564      2.00000
     16       1.9612      2.00000
     17       2.7013      2.00000
     18       2.9919      2.00000
     19       3.2215      2.00000
     20       3.2338      2.00000
     21       3.3211      2.00000
     22       3.3282      2.00000
     23       3.5690      2.00000
     24       3.8972      2.00000
     25       3.9126      2.00000
     26       3.9867      2.00000
     27       3.9941      2.00000
     28       4.3338      2.00000
     29       4.3458      2.00000
     30       4.3487      2.00000
     31       6.2632     -0.04675
     32       6.4106     -0.00480
     33       9.6126     -0.00000
     34      11.5851      0.00000
     35      14.1589      0.00000
     36      15.0104      0.00000
     37      15.0909      0.00000

 k-point     5 :       0.4167    0.2500    0.0833
  band No.  band energies     occupation 
      1     -63.6289      2.00000
      2     -63.6229      2.00000
      3     -63.6103      2.00000
      4     -63.5986      2.00000
      5     -63.5893      2.00000
      6     -63.5741      2.00000
      7     -63.5689      2.00000
      8     -63.5615      2.00000
      9     -63.5530      2.00000
     10      -0.7448      2.00000
     11       0.2371      2.00000
     12       0.7600      2.00000
     13       0.9267      2.00000
     14       1.0577      2.00000
     15       1.3949      2.00000
     16       2.0141      2.00000
     17       2.6370      2.00000
     18       2.7232      2.00000
     19       2.7900      2.00000
     20       2.9841      2.00000
     21       3.1516      2.00000
     22       3.3849      2.00000
     23       3.5319      2.00000
     24       3.7124      2.00000
     25       3.8047      2.00000
     26       3.8253      2.00000
     27       4.0875      2.00000
     28       4.2506      2.00000
     29       4.2628      2.00000
     30       4.2855      2.00000
     31       4.8227      2.00000
     32       7.6611     -0.00000
     33       9.3796     -0.00000
     34      11.1693     -0.00000
     35      12.9244      0.00000
     36      14.9210      0.00000
     37      16.2135      0.00000

 k-point     6 :       0.4167    0.4167    0.0833
  band No.  band energies     occupation 
      1     -63.6161      2.00000
      2     -63.6104      2.00000
      3     -63.6093      2.00000
      4     -63.6067      2.00000
      5     -63.6053      2.00000
      6     -63.5957      2.00000
      7     -63.5947      2.00000
      8     -63.5826      2.00000
      9     -63.5459      2.00000
     10      -0.1212      2.00000
     11       0.2833      2.00000
     12       0.8869      2.00000
     13       0.9767      2.00000
     14       1.3962      2.00000
     15       1.6336      2.00000
     16       2.0346      2.00000
     17       2.4311      2.00000
     18       2.7865      2.00000
     19       2.8442      2.00000
     20       2.9591      2.00000
     21       3.0634      2.00000
     22       3.1101      2.00000
     23       3.5088      2.00000
     24       3.6032      2.00000
     25       3.6667      2.00000
     26       3.7721      2.00000
     27       3.9722      2.00000
     28       3.9823      2.00000
     29       4.0768      2.00000
     30       4.7683      2.00000
     31       5.5686      2.02320
     32       5.9134      1.26143
     33       7.2997     -0.00000
     34      12.5011      0.00000
     35      14.0818      0.00000
     36      14.4066      0.00000
     37      15.5692      0.00000

 k-point     7 :       0.2500    0.2500    0.2500
  band No.  band energies     occupation 
      1     -63.6278      2.00000
      2     -63.6189      2.00000
      3     -63.6189      2.00000
      4     -63.6065      2.00000
      5     -63.6065      2.00000
      6     -63.5925      2.00000
      7     -63.5883      2.00000
      8     -63.5883      2.00000
      9     -63.5864      2.00000
     10      -1.2115      2.00000
     11       0.4901      2.00000
     12       0.4901      2.00000
     13       1.0495      2.00000
     14       1.0495      2.00000
     15       1.1899      2.00000
     16       1.9253      2.00000
     17       2.6492      2.00000
     18       3.1026      2.00000
     19       3.1284      2.00000
     20       3.1284      2.00000
     21       3.2220      2.00000
     22       3.2220      2.00000
     23       3.5478      2.00000
     24       3.5478      2.00000
     25       3.7509      2.00000
     26       3.9230      2.00000
     27       3.9230      2.00000
     28       4.4081      2.00000
     29       4.4366      2.00000
     30       4.4366      2.00000
     31       6.9838     -0.00000
     32       7.0328     -0.00000
     33       7.0328     -0.00000
     34      11.9120      0.00000
     35      12.5755      0.00000
     36      12.5755      0.00000
     37      17.7299      0.00000

 k-point     8 :       0.4167    0.2500    0.2500
  band No.  band energies     occupation 
      1     -63.6452      2.00000
      2     -63.6356      2.00000
      3     -63.6169      2.00000
      4     -63.5999      2.00000
      5     -63.5921      2.00000
      6     -63.5896      2.00000
      7     -63.5860      2.00000
      8     -63.5852      2.00000
      9     -63.5330      2.00000
     10      -0.4100      2.00000
     11       0.2722      2.00000
     12       0.4641      2.00000
     13       1.0731      2.00000
     14       1.0820      2.00000
     15       1.6581      2.00000
     16       2.0671      2.00000
     17       2.6991      2.00000
     18       2.8332      2.00000
     19       2.9978      2.00000
     20       3.1675      2.00000
     21       3.2081      2.00000
     22       3.2083      2.00000
     23       3.3839      2.00000
     24       3.4203      2.00000
     25       3.6140      2.00000
     26       4.0868      2.00000
     27       4.1830      2.00000
     28       4.3350      2.00000
     29       4.3438      2.00000
     30       4.3736      2.00000
     31       5.0174      2.00000
     32       7.9285     -0.00000
     33       8.0855     -0.00000
     34       9.9838     -0.00000
     35      10.7124     -0.00000
     36      13.7591      0.00000
     37      15.5738      0.00000

 k-point     9 :       0.4167    0.4167    0.2500
  band No.  band energies     occupation 
      1     -63.6467      2.00000
      2     -63.6194      2.00000
      3     -63.6069      2.00000
      4     -63.5978      2.00000
      5     -63.5923      2.00000
      6     -63.5893      2.00000
      7     -63.5806      2.00000
      8     -63.5740      2.00000
      9     -63.5583      2.00000
     10      -0.0970      2.00000
     11       0.2150      2.00000
     12       0.3252      2.00000
     13       0.9291      2.00000
     14       1.4330      2.00000
     15       1.7787      2.00000
     16       2.5164      2.00000
     17       2.8883      2.00000
     18       2.9615      2.00000
     19       3.0946      2.00000
     20       3.1383      2.00000
     21       3.2638      2.00000
     22       3.3310      2.00000
     23       3.3607      2.00000
     24       3.3653      2.00000
     25       3.4366      2.00000
     26       4.0830      2.00000
     27       4.2632      2.00000
     28       4.2795      2.00000
     29       4.2903      2.00000
     30       4.6053      2.00000
     31       5.6581      2.06112
     32       5.9373      1.06241
     33       7.1378     -0.00000
     34      10.0197     -0.00000
     35      11.3446     -0.00000
     36      11.8963      0.00000
     37      13.3585      0.00000

 k-point    10 :       0.4167    0.4167    0.4167
  band No.  band energies     occupation 
      1     -63.6573      2.00000
      2     -63.6298      2.00000
      3     -63.6298      2.00000
      4     -63.6259      2.00000
      5     -63.5853      2.00000
      6     -63.5853      2.00000
      7     -63.5815      2.00000
      8     -63.5815      2.00000
      9     -63.5774      2.00000
     10      -0.0924      2.00000
     11       0.0038      2.00000
     12       0.0038      2.00000
     13       0.9759      2.00000
     14       1.6923      2.00000
     15       1.6923      2.00000
     16       2.8235      2.00000
     17       2.9867      2.00000
     18       2.9867      2.00000
     19       3.1907      2.00000
     20       3.1907      2.00000
     21       3.2792      2.00000
     22       3.7341      2.00000
     23       3.8177      2.00000
     24       3.8177      2.00000
     25       4.1584      2.00000
     26       4.3052      2.00000
     27       4.3052      2.00000
     28       4.3791      2.00000
     29       4.4001      2.00000
     30       4.4001      2.00000
     31       5.8392      1.76917
     32       5.8392      1.76917
     33       5.8970      1.39177
     34       8.9327     -0.00000
     35      10.2750     -0.00000
     36      10.2750     -0.00000
     37      11.3202     -0.00000


--------------------------------------------------------------------------------------------------------


 soft charge-density along one line, spin component           1
         0         1         2         3         4         5         6         7         8         9
 total charge-density along one line
 
 pseudopotential strength for first ion, spin component:           1
 -9.813   0.000   0.000   0.000   0.000  -0.099  -0.000  -0.000
  0.000  -9.813   0.000  -0.000  -0.000  -0.000  -0.099  -0.000
  0.000   0.000  -9.792   0.000   0.000  -0.000  -0.000  -0.102
  0.000  -0.000   0.000  -9.813   0.000  -0.000   0.000  -0.000
  0.000  -0.000   0.000   0.000  -9.792  -0.000   0.000  -0.000
 -0.099  -0.000  -0.000  -0.000  -0.000   0.283   0.000   0.000
 -0.000  -0.099  -0.000   0.000   0.000   0.000   0.283   0.000
 -0.000  -0.000  -0.102  -0.000  -0.000   0.000   0.000   0.284
 -0.000   0.000  -0.000  -0.099  -0.000   0.000  -0.000   0.000
 -0.000   0.000  -0.000  -0.000  -0.102   0.000  -0.000   0.000
  0.000  -0.000   0.000  -0.000   0.000   0.000  -0.000  -0.000
 -0.000   0.000  -0.000   0.000  -0.000   0.000  -0.000   0.000
  0.000   0.000  -0.000   0.000  -0.000  -0.000  -0.000   0.000
  0.000   0.000   0.000   0.000   0.000  -0.000  -0.000  -0.000
  0.000   0.000  -0.000   0.000   0.000  -0.000  -0.000   0.000
 -0.000  -0.000   0.000  -0.000   0.000   0.000   0.000  -0.000
 -0.000  -0.000  -0.000  -0.000  -0.000   0.000   0.000   0.000
 -0.000  -0.000   0.000  -0.000  -0.000   0.000   0.000  -0.000
 total augmentation occupancy for first ion, spin component:           1
  1.877   0.000  -0.000  -0.000   0.000  -0.023   0.000   0.000  -0.000  -0.000   0.000  -0.000   0.000   0.000   0.000   0.000
 -0.000   1.877  -0.000   0.000  -0.000   0.000  -0.023   0.000   0.000   0.000  -0.000  -0.000   0.000   0.000   0.000   0.000
  0.000   0.000   1.931   0.000   0.000   0.000  -0.000  -0.110   0.000  -0.000  -0.000  -0.000   0.000   0.000   0.000   0.000
  0.000  -0.000   0.000   1.877   0.000   0.000   0.000  -0.000  -0.023   0.000   0.000   0.000   0.000   0.000   0.000   0.000
 -0.000   0.000   0.000   0.000   1.931   0.000  -0.000  -0.000   0.000  -0.110  -0.000   0.000   0.000   0.000   0.000   0.000
 -0.023  -0.000   0.000   0.000  -0.000   0.169   0.000   0.000  -0.000  -0.000   0.000   0.000   0.000   0.000   0.000   0.000
  0.000  -0.023   0.000   0.000   0.000  -0.000   0.169  -0.000  -0.000  -0.000   0.000  -0.000   0.000   0.000   0.000   0.000
  0.000  -0.000  -0.110   0.000   0.000   0.000  -0.000   0.176  -0.000   0.000  -0.000   0.000   0.000   0.000   0.000   0.000
  0.000   0.000   0.000  -0.023   0.000  -0.000  -0.000  -0.000   0.169  -0.000   0.000  -0.000   0.000   0.000   0.000   0.000
  0.000  -0.000   0.000   0.000  -0.110  -0.000  -0.000   0.000  -0.000   0.176   0.000  -0.000   0.000   0.000   0.000   0.000
  0.000  -0.000  -0.000  -0.000  -0.000   0.000  -0.000  -0.000   0.000   0.000   1.318  -0.332   0.000   0.000   0.000   0.000
  0.000   0.000  -0.000  -0.000   0.000   0.000  -0.000   0.000  -0.000   0.000  -0.332   0.192   0.000   0.000   0.000   0.000
  0.000   0.000   0.000   0.000   0.000   0.000   0.000   0.000   0.000   0.000   0.000   0.000   0.206   0.000   0.000  -0.011
  0.000   0.000   0.000   0.000   0.000   0.000   0.000   0.000   0.000   0.000   0.000   0.000   0.000   0.206   0.000   0.000
  0.000   0.000   0.000   0.000   0.000   0.000   0.000   0.000   0.000   0.000   0.000   0.000   0.000   0.000   0.206   0.000
  0.000   0.000   0.000   0.000   0.000   0.000   0.000   0.000   0.000   0.000   0.000   0.000  -0.011  -0.000  -0.000   0.001
  0.000   0.000   0.000   0.000   0.000   0.000   0.000   0.000   0.000   0.000   0.000   0.000   0.000  -0.011   0.000   0.000
  0.000   0.000   0.000   0.000   0.000   0.000   0.000   0.000   0.000   0.000   0.000   0.000   0.000  -0.000  -0.011   0.000


------------------------ aborting loop because EDIFF is reached ----------------------------------------


    FORLOC:  cpu time    0.0009: real time    0.0009
    FORNL :  cpu time    0.0949: real time    0.1940
    STRESS:  cpu time    0.2896: real time    0.5895
    FORCOR:  cpu time    0.0108: real time    0.0109
    OFIELD:  cpu time    0.0001: real time    0.0001

  FORCE on cell =-STRESS in cart. coord.  units (eV):
  Direction    XX          YY          ZZ          XY          YZ          ZX
  --------------------------------------------------------------------------------------
  Alpha Z   553.11053   553.11053   553.11053
  Ewald   -2821.17938 -2821.17938 -2821.17938    -0.00000    -0.00000    -0.00000
  Hartree  1423.11791  1423.11791  1423.11791    -0.00000    -0.00000    -0.00000
  E(xc)    -451.17587  -451.17587  -451.17587     0.00000    -0.00000     0.00000
  Local     214.76310   214.76310   214.76310     0.00000     0.00000    -0.00000
  n-local  -349.18985  -356.49486  -359.15775     0.04320     2.42457     1.09433
  augment   606.18633   606.18633   606.18633     0.00000     0.00000    -0.00000
  Kinetic   804.57926   796.59571   791.84754    -3.05327    -0.33052    -1.57434
  Fock        0.00000     0.00000     0.00000     0.00000     0.00000     0.00000
  -------------------------------------------------------------------------------------
  Total     -32.45069   -32.45069   -32.45069    -0.00000    -0.00000    -0.00000
  in kB    -947.50985  -947.50985  -947.50985    -0.00000    -0.00000    -0.00000
  external pressure =     -947.51 kB  Pullay stress =        0.00 kB


 VOLUME and BASIS-vectors are now :
 -----------------------------------------------------------------------------
  energy-cutoff  :      300.00
  volume of cell :       54.87
      direct lattice vectors                 reciprocal lattice vectors
     3.800000000  0.000000000  0.000000000     0.263157895  0.000000000  0.000000000
     0.000000000  3.800000000  0.000000000     0.000000000  0.263157895  0.000000000
     0.000000000  0.000000000  3.800000000     0.000000000  0.000000000  0.263157895

  length of vectors
     3.800000000  3.800000000  3.800000000     0.263157895  0.263157895  0.263157895


 FORCES acting on ions:
    Electron-Ion                     Ewald-Force                    Non-Local-Force
 -----------------------------------------------------------------------------------------------
   -.671E-14 0.150E-29 0.299E-14   -.163E-13 -.217E-13 -.117E-13   -.251E-22 -.135E-22 0.378E-22
   0.974E-12 0.108E-11 -.190E-11   -.143E-13 0.655E-14 -.349E-13   0.834E-22 0.171E-21 -.163E-22
   0.101E-11 0.176E-27 0.731E-11   0.952E-14 -.147E-13 0.228E-13   0.705E-22 -.167E-22 0.827E-22
   -.944E-13 0.108E-11 0.110E-11   0.159E-13 0.336E-13 0.227E-13   -.269E-22 -.665E-22 0.676E-22
 -----------------------------------------------------------------------------------------------
   0.189E-11 0.217E-11 0.656E-11   -.509E-14 0.369E-14 -.104E-14   0.102E-21 0.748E-22 0.172E-21
 
 
 POSITION                                       TOTAL-FORCE (eV/Angst)
 -----------------------------------------------------------------------------------
      0.00000      0.00000      0.00000         0.000000      0.000000      0.000000
      1.90000      1.90000      0.00000        -0.000000      0.000000      0.000000
      1.90000      0.00000      1.90000        -0.000000     -0.000000     -0.000000
      0.00000      1.90000      1.90000         0.000000      0.000000      0.000000
 -----------------------------------------------------------------------------------
    total drift:                                0.000000      0.000000      0.000000


--------------------------------------------------------------------------------------------------------



  FREE ENERGIE OF THE ION-ELECTRON SYSTEM (eV)
  ---------------------------------------------------
  free  energy   TOTEN  =       -14.52952250 eV

  energy  without entropy=      -14.52021563  energy(sigma->0) =      -14.52642021
 


--------------------------------------------------------------------------------------------------------


    POTLOK:  cpu time    0.0136: real time    0.0135


--------------------------------------------------------------------------------------------------------




--------------------------------------------------------------------------------------------------------


    WAVPRE:  cpu time    0.0306: real time    0.0815
    FEWALD:  cpu time    0.0002: real time    0.0002
    GENKIN:  cpu time    0.0006: real time    0.0006
    ORTHCH:  cpu time    0.1137: real time    0.2137
    CHARGE:  cpu time    0.0134: real time    0.0625
     LOOP+:  cpu time    3.6787: real time    7.3825


[...]
     13       2.1276      2.00000
     14       2.1644      2.00000
     15       2.3809      2.00000
     16       3.4342      2.00000
     17       4.1062      2.00000
     18       4.2223      2.00000
     19       4.4459      2.00000
     20       4.4560      2.00000
     21       5.0207      2.00000
     22       5.1760      2.00000
     23       5.4319      2.00000
     24       5.5938      2.00000
     25       5.6598      2.00000
     26       5.7098      2.00000
     27       5.9653      2.00000
     28       6.0294      2.00000
     29       6.2045      2.00000
     30       6.4589      2.00000
     31       6.6278      2.00000
     32      12.8536     -0.00000
     33      13.0430     -0.00000
     34      14.9329      0.00000
     35      15.2092      0.00000
     36      17.6285      0.00000
     37      17.6713      0.00000

 k-point     4 :       0.2500    0.2500    0.0833
  band No.  band energies     occupation 
      1     -61.8827      2.00000
      2     -61.8750      2.00000
      3     -61.8682      2.00000
      4     -61.8595      2.00000
      5     -61.8477      2.00000
      6     -61.8462      2.00000
      7     -61.8347      2.00000
      8     -61.8274      2.00000
      9     -61.8192      2.00000
     10      -0.9116      2.00000
     11       1.3277      2.00000
     12       1.5644      2.00000
     13       2.0336      2.00000
     14       2.0587      2.00000
     15       2.2421      2.00000
     16       3.2187      2.00000
     17       4.1618      2.00000
     18       4.5554      2.00000
     19       4.8821      2.00000
     20       4.8891      2.00000
     21       4.9544      2.00000
     22       4.9558      2.00000
     23       5.3551      2.00000
     24       5.7657      2.00000
     25       5.8029      2.00000
     26       5.8622      2.00000
     27       5.8916      2.00000
     28       6.3237      2.00000
     29       6.3799      2.00000
     30       6.4011      2.00000
     31       8.4599     -0.06954
     32       8.7512     -0.00134
     33      12.1610     -0.00000
     34      14.4568      0.00000
     35      17.4366      0.00000
     36      18.2448      0.00000
     37      18.2892      0.00000

 k-point     5 :       0.4167    0.2500    0.0833
  band No.  band energies     occupation 
      1     -61.8827      2.00000
      2     -61.8772      2.00000
      3     -61.8620      2.00000
      4     -61.8553      2.00000
      5     -61.8468      2.00000
      6     -61.8384      2.00000
      7     -61.8334      2.00000
      8     -61.8290      2.00000
      9     -61.8154      2.00000
     10       0.1665      2.00000
     11       1.2417      2.00000
     12       1.8267      2.00000
     13       2.0714      2.00000
     14       2.2438      2.00000
     15       2.6519      2.00000
     16       3.3733      2.00000
     17       4.0501      2.00000
     18       4.2275      2.00000
     19       4.2854      2.00000
     20       4.5101      2.00000
     21       4.7525      2.00000
     22       5.0908      2.00000
     23       5.3078      2.00000
     24       5.5073      2.00000
     25       5.6153      2.00000
     26       5.6288      2.00000
     27       5.9968      2.00000
     28       6.2387      2.00000
     29       6.2618      2.00000
     30       6.2811      2.00000
     31       6.9221      2.00000
     32      10.1310     -0.00000
     33      11.9622     -0.00000
     34      14.0457      0.00000
     35      15.9576      0.00000
     36      18.1481      0.00000
     37      19.4807      0.00000

 k-point     6 :       0.4167    0.4167    0.0833
  band No.  band energies     occupation 
      1     -61.8792      2.00000
      2     -61.8766      2.00000
      3     -61.8640      2.00000
      4     -61.8607      2.00000
      5     -61.8527      2.00000
      6     -61.8492      2.00000
      7     -61.8328      2.00000
      8     -61.8307      2.00000
      9     -61.8174      2.00000
     10       0.8381      2.00000
     11       1.3011      2.00000
     12       2.0266      2.00000
     13       2.1393      2.00000
     14       2.6612      2.00000
     15       2.9473      2.00000
     16       3.3621      2.00000
     17       3.9374      2.00000
     18       4.2559      2.00000
     19       4.3086      2.00000
     20       4.4646      2.00000
     21       4.6291      2.00000
     22       4.7095      2.00000
     23       5.2430      2.00000
     24       5.3584      2.00000
     25       5.4150      2.00000
     26       5.5849      2.00000
     27       5.8594      2.00000
     28       5.8871      2.00000
     29       6.0075      2.00000
     30       6.8782      2.00000
     31       7.7598      2.00460
     32       8.2768      0.59570
     33       9.7301     -0.00000
     34      15.5180      0.00000
     35      17.2582      0.00000
     36      17.5811      0.00000
     37      18.7621      0.00000

 k-point     7 :       0.2500    0.2500    0.2500
  band No.  band energies     occupation 
      1     -61.8945      2.00000
      2     -61.8765      2.00000
      3     -61.8765      2.00000
      4     -61.8515      2.00000
      5     -61.8475      2.00000
      6     -61.8475      2.00000
      7     -61.8396      2.00000
      8     -61.8242      2.00000
      9     -61.8242      2.00000
     10      -0.3511      2.00000
     11       1.5061      2.00000
     12       1.5061      2.00000
     13       2.2023      2.00000
     14       2.2023      2.00000
     15       2.4428      2.00000
     16       3.1958      2.00000
     17       4.0664      2.00000
     18       4.6745      2.00000
     19       4.7495      2.00000
     20       4.7495      2.00000
     21       4.8440      2.00000
     22       4.8440      2.00000
     23       5.3173      2.00000
     24       5.3173      2.00000
     25       5.5415      2.00000
     26       5.7904      2.00000
     27       5.7904      2.00000
     28       6.4148      2.00000
     29       6.5239      2.00000
     30       6.5239      2.00000
     31       9.3454     -0.00000
     32       9.3454     -0.00000
     33       9.3910     -0.00000
     34      14.8916      0.00000
     35      15.6010      0.00000
     36      15.6010      0.00000
     37      21.1561      0.00000

 k-point     8 :       0.4167    0.2500    0.2500
  band No.  band energies     occupation 
      1     -61.8982      2.00000
      2     -61.8868      2.00000
      3     -61.8696      2.00000
      4     -61.8548      2.00000
      5     -61.8462      2.00000
      6     -61.8376      2.00000
      7     -61.8363      2.00000
      8     -61.8203      2.00000
      9     -61.8200      2.00000
     10       0.5224      2.00000
     11       1.2745      2.00000
     12       1.4951      2.00000
     13       2.2435      2.00000
     14       2.2694      2.00000
     15       3.0032      2.00000
     16       3.4219      2.00000
     17       4.1689      2.00000
     18       4.3320      2.00000
     19       4.5006      2.00000
     20       4.7497      2.00000
     21       4.8232      2.00000
     22       4.8660      2.00000
     23       5.0799      2.00000
     24       5.1245      2.00000
     25       5.3558      2.00000
     26       5.9878      2.00000
     27       6.1349      2.00000
     28       6.3355      2.00000
     29       6.4063      2.00000
     30       6.4138      2.00000
     31       7.1055      2.00000
     32      10.2688     -0.00000
     33      10.4550     -0.00000
     34      12.9196     -0.00000
     35      13.7128     -0.00000
     36      16.9345      0.00000
     37      18.9036      0.00000

 k-point     9 :       0.4167    0.4167    0.2500
  band No.  band energies     occupation 
      1     -61.8995      2.00000
      2     -61.8890      2.00000
      3     -61.8776      2.00000
      4     -61.8621      2.00000
      5     -61.8411      2.00000
      6     -61.8350      2.00000
      7     -61.8291      2.00000
      8     -61.8207      2.00000
      9     -61.8125      2.00000
     10       0.8384      2.00000
     11       1.1961      2.00000
     12       1.3239      2.00000
     13       2.0693      2.00000
     14       2.7103      2.00000
     15       3.1992      2.00000
     16       3.9855      2.00000
     17       4.4435      2.00000
     18       4.5040      2.00000
     19       4.6639      2.00000
     20       4.7141      2.00000
     21       4.8083      2.00000
     22       4.9302      2.00000
     23       5.0056      2.00000
     24       5.0155      2.00000
     25       5.1167      2.00000
     26       5.9916      2.00000
     27       6.2523      2.00000
     28       6.2967      2.00000
     29       6.2975      2.00000
     30       6.6590      2.00000
     31       7.7588      2.00451
     32       8.1712      1.45667
     33       9.3363     -0.00000
     34      13.0358     -0.00000
     35      14.3887      0.00000
     36      14.9863      0.00000
     37      16.5484      0.00000

 k-point    10 :       0.4167    0.4167    0.4167
  band No.  band energies     occupation 
      1     -61.9109      2.00000
      2     -61.8925      2.00000
      3     -61.8925      2.00000
      4     -61.8915      2.00000
      5     -61.8289      2.00000
      6     -61.8289      2.00000
      7     -61.8264      2.00000
      8     -61.8142      2.00000
      9     -61.8142      2.00000
     10       0.8194      2.00000
     11       0.9257      2.00000
     12       0.9257      2.00000
     13       2.1046      2.00000
     14       3.0896      2.00000
     15       3.0896      2.00000
     16       4.3886      2.00000
     17       4.6003      2.00000
     18       4.6003      2.00000
     19       4.7935      2.00000
     20       4.7935      2.00000
     21       4.9147      2.00000
     22       5.4055      2.00000
     23       5.5188      2.00000
     24       5.5188      2.00000
     25       5.7340      2.00000
     26       6.3137      2.00000
     27       6.3137      2.00000
     28       6.3758      2.00000
     29       6.4777      2.00000
     30       6.4777      2.00000
     31       7.7667      2.00528
     32       7.7667      2.00528
     33       7.8341      2.01767
     34      11.9252     -0.00000
     35      13.3870     -0.00000
     36      13.3870     -0.00000
     37      14.4406      0.00000


--------------------------------------------------------------------------------------------------------


 soft charge-density along one line, spin component           1
         0         1         2         3         4         5         6         7         8         9
 total charge-density along one line
 
 pseudopotential strength for first ion, spin component:           1
 -9.117  -0.000  -0.000   0.000  -0.000  -0.200   0.000   0.000
 -0.000  -9.117   0.000  -0.000   0.000   0.000  -0.200  -0.000
 -0.000   0.000  -9.092  -0.000   0.000   0.000  -0.000  -0.203
  0.000  -0.000  -0.000  -9.117   0.000  -0.000   0.000   0.000
 -0.000   0.000   0.000   0.000  -9.092   0.000  -0.000  -0.000
 -0.200   0.000   0.000  -0.000   0.000   0.297  -0.000  -0.000
  0.000  -0.200  -0.000   0.000  -0.000  -0.000   0.297   0.000
  0.000  -0.000  -0.203   0.000  -0.000  -0.000   0.000   0.298
 -0.000   0.000   0.000  -0.200  -0.000   0.000  -0.000  -0.000
  0.000  -0.000  -0.000  -0.000  -0.203  -0.000  -0.000   0.000
 -0.000  -0.000   0.000   0.000   0.000  -0.000  -0.000  -0.000
  0.000   0.000  -0.000  -0.000  -0.000  -0.000  -0.000   0.000
  0.000   0.000  -0.000   0.000  -0.000  -0.000  -0.000   0.000
  0.000   0.000   0.000   0.000   0.000  -0.000  -0.000  -0.000
  0.000   0.000  -0.000   0.000   0.000  -0.000  -0.000   0.000
 -0.000  -0.000   0.000  -0.000   0.000   0.000   0.000  -0.000
 -0.000  -0.000  -0.000  -0.000  -0.000   0.000   0.000   0.000
 -0.000  -0.000   0.000  -0.000  -0.000   0.000   0.000  -0.000
 total augmentation occupancy for first ion, spin component:           1
  1.883  -0.000   0.000   0.000  -0.000   0.057  -0.000   0.000   0.000   0.000  -0.000   0.000   0.000   0.000   0.000   0.000
  0.000   1.883   0.000  -0.000  -0.000  -0.000   0.057  -0.000  -0.000  -0.000   0.000  -0.000   0.000   0.000   0.000   0.000
 -0.000  -0.000   1.938   0.000   0.000   0.000  -0.000  -0.056  -0.000  -0.000   0.000  -0.000   0.000   0.000   0.000   0.000
  0.000   0.000   0.000   1.883   0.000   0.000  -0.000  -0.000   0.057   0.000  -0.000   0.000   0.000   0.000   0.000   0.000
  0.000   0.000   0.000  -0.000   1.938  -0.000  -0.000   0.000   0.000  -0.056   0.000   0.000   0.000   0.000   0.000   0.000
  0.057   0.000   0.000   0.000   0.000   0.279   0.000  -0.000   0.000  -0.000   0.000  -0.000   0.000   0.000   0.000   0.000
  0.000   0.057  -0.000  -0.000  -0.000   0.000   0.279   0.000   0.000  -0.000   0.000   0.000   0.000   0.000   0.000   0.000
  0.000  -0.000  -0.056   0.000   0.000   0.000   0.000   0.285  -0.000  -0.000  -0.000   0.000   0.000   0.000   0.000   0.000
 -0.000   0.000  -0.000   0.057   0.000   0.000   0.000   0.000   0.279  -0.000  -0.000  -0.000   0.000   0.000   0.000   0.000
  0.000  -0.000   0.000   0.000  -0.056   0.000  -0.000  -0.000  -0.000   0.285  -0.000  -0.000   0.000   0.000   0.000   0.000
 -0.000  -0.000  -0.000  -0.000  -0.000   0.000   0.000  -0.000  -0.000  -0.000   1.424  -0.436   0.000   0.000   0.000   0.000
  0.000  -0.000   0.000   0.000   0.000   0.000   0.000   0.000   0.000  -0.000  -0.436   0.285   0.000   0.000   0.000   0.000
  0.000   0.000   0.000   0.000   0.000   0.000   0.000   0.000   0.000   0.000   0.000   0.000   0.285   0.000   0.000  -0.015
  0.000   0.000   0.000   0.000   0.000   0.000   0.000   0.000   0.000   0.000   0.000   0.000   0.000   0.285   0.000   0.000
  0.000   0.000   0.000   0.000   0.000   0.000   0.000   0.000   0.000   0.000   0.000   0.000   0.000  -0.000   0.285  -0.000
  0.000   0.000   0.000   0.000   0.000   0.000   0.000   0.000   0.000   0.000   0.000   0.000  -0.015  -0.000   0.000   0.001
  0.000   0.000   0.000   0.000   0.000   0.000   0.000   0.000   0.000   0.000   0.000   0.000   0.000  -0.015   0.000   0.000
  0.000   0.000   0.000   0.000   0.000   0.000   0.000   0.000   0.000   0.000   0.000   0.000   0.000  -0.000  -0.015   0.000


------------------------ aborting loop because EDIFF is reached ----------------------------------------


    FORLOC:  cpu time    0.0009: real time    0.0009
    FORNL :  cpu time    0.1104: real time    0.2584
    STRESS:  cpu time    0.3296: real time    0.6299
    FORCOR:  cpu time    0.0101: real time    0.0100
    OFIELD:  cpu time    0.0001: real time    0.0001

  FORCE on cell =-STRESS in cart. coord.  units (eV):
  Direction    XX          YY          ZZ          XY          YZ          ZX
  --------------------------------------------------------------------------------------
  Alpha Z   654.54088   654.54088   654.54088
  Ewald   -2984.04694 -2984.04694 -2984.04694    -0.00000     0.00000     0.00000
  Hartree  1325.26155  1325.26155  1325.26154    -0.00000    -0.00000    -0.00000
  E(xc)    -452.77799  -452.77799  -452.77799     0.00000     0.00000     0.00000
  Local     375.30595   375.30595   375.30595    -0.00000     0.00000     0.00000
  n-local  -309.59299  -318.43893  -321.74727     0.49162     2.67525     1.26482
  augment   605.61110   605.61110   605.61110    -0.00000     0.00000     0.00000
  Kinetic   799.81745   791.66130   786.37135    -3.30963    -0.90322    -2.03254
  Fock        0.00000     0.00000     0.00000     0.00000     0.00000     0.00000
  -------------------------------------------------------------------------------------
  Total      -0.08182    -0.08182    -0.08182     0.00000     0.00000    -0.00000
  in kB      -2.82706    -2.82706    -2.82706     0.00000     0.00000    -0.00000
  external pressure =       -2.83 kB  Pullay stress =        0.00 kB


 VOLUME and BASIS-vectors are now :
 -----------------------------------------------------------------------------
  energy-cutoff  :      300.00
  volume of cell :       46.37
      direct lattice vectors                 reciprocal lattice vectors
     3.592598185 -0.000000000 -0.000000000     0.278350082  0.000000000 -0.000000000
    -0.000000000  3.592598185  0.000000000     0.000000000  0.278350082  0.000000000
     0.000000000 -0.000000000  3.592598185     0.000000000 -0.000000000  0.278350082

  length of vectors
     3.592598185  3.592598185  3.592598185     0.278350082  0.278350082  0.278350082


 FORCES acting on ions:
    Electron-Ion                     Ewald-Force                    Non-Local-Force
 -----------------------------------------------------------------------------------------------
   0.940E-14 -.128E-23 0.356E-14   -.236E-13 -.526E-14 0.340E-14   -.124E-22 -.517E-23 0.559E-24
   0.986E-12 0.101E-11 -.202E-11   -.201E-13 0.229E-13 -.223E-13   -.383E-23 -.567E-23 -.487E-22
   0.983E-12 0.127E-23 0.696E-11   0.292E-13 -.166E-13 0.118E-13   -.271E-22 0.301E-22 -.330E-22
   -.349E-13 0.101E-11 0.103E-11   0.122E-13 0.562E-14 0.112E-13   -.446E-22 0.584E-23 -.585E-22
 -----------------------------------------------------------------------------------------------
   0.195E-11 0.202E-11 0.601E-11   -.226E-14 0.671E-14 0.408E-14   -.880E-22 0.251E-22 -.140E-21
 
 
 POSITION                                       TOTAL-FORCE (eV/Angst)
 -----------------------------------------------------------------------------------
     -0.00000     -0.00000     -0.00000        -0.000000     -0.000000     -0.000000
      1.79630      1.79630      0.00000         0.000000      0.000000     -0.000000
      1.79630     -0.00000      1.79630        -0.000000     -0.000000      0.000000
      0.00000      1.79630      1.79630         0.000000      0.000000      0.000000
 -----------------------------------------------------------------------------------
    total drift:                                0.000000      0.000000      0.000000


--------------------------------------------------------------------------------------------------------



  FREE ENERGIE OF THE ION-ELECTRON SYSTEM (eV)
  ---------------------------------------------------
  free  energy   TOTEN  =       -17.09625323 eV

  energy  without entropy=      -17.09005936  energy(sigma->0) =      -17.09418861
 
 d Force = 0.0000000E+00[ 0.000E+00, 0.000E+00]  d Energy = 0.4440475E-02-0.444E-02
 d Force = 0.0000000E+00[ 0.000E+00, 0.000E+00]  d Ewald  = 0.2049125E+02-0.205E+02


--------------------------------------------------------------------------------------------------------


    POTLOK:  cpu time    0.0134: real time    0.0635


--------------------------------------------------------------------------------------------------------




--------------------------------------------------------------------------------------------------------


  
 reached required accuracy - stopping structural energy minimisation
     LOOP+:  cpu time    2.0919: real time    4.1933
    4ORBIT:  cpu time    0.0000: real time    0.0000

 total amount of memory used by VASP MPI-rank0    50547. kBytes
=======================================================================

   base      :      30000. kBytes
   nonlr-proj:       4218. kBytes
   fftplans  :       1184. kBytes
   grid      :       2084. kBytes
   one-center:         62. kBytes
   wavefun   :      12999. kBytes
 
  
  
 General timing and accounting informations for this job:
 ========================================================
  
                  Total CPU time used (sec):       25.619
                            User time (sec):       25.290
                          System time (sec):        0.329
                         Elapsed time (sec):       51.583
  
                   Maximum memory used (kb):      319736.
                   Average memory used (kb):           0.
  
                          Minor page faults:        58296
                          Major page faults:          133
                 Voluntary context switches:         2730
