<?xml version="1.0" encoding="ISO-8859-1"?>
<modeling>
 <generator>
  <i name="program" type="string">vasp </i>
  <i name="version" type="string">5.4.4.18Apr17-6-g9f103f2a35  </i>
  <i name="subversion" type="string">(build Oct  7 2025 21:22:07) complex            parallel </i>
  <i name="platform" type="string">LinuxIFC </i>
  <i name="date" type="string">2025 11 06 </i>
  <i name="time" type="string">15:52:38 </i>
 </generator>
 <incar>
  <i type="string" name="PREC">normal</i>
  <i type="string" name="ALGO"> All</i>
  <i name="AMIX">      0.02000000</i>
  <i name="BMIX">      0.00010000</i>
  <i type="int" name="NELM">    80</i>
  <i type="int" name="IBRION">     2</i>
  <i name="EDIFF">      0.00001000</i>
  <i name="EDIFFG">     -0.03000000</i>
  <i type="int" name="NSW">    40</i>
  <i type="int" name="ISIF">     3</i>
  <i type="int" name="ISYM">     2</i>
  <i name="ENCUT">    300.00000000</i>
  <i type="string" name="LREAL"> Auto</i>
  <i type="int" name="ISMEAR">     1</i>
  <i name="SIGMA">      0.20000000</i>
  <i type="logical" name="LWAVE"> F  </i>
  <i type="logical" name="LCHARG"> T  </i>
  <v type="int" name="KPOINT_BSE">    -1     0     0     0</v>
  <i type="int" name="NELM">    80</i>
 </incar>
 <structure name="primitive_cell" >
  <crystal>
   <varray name="basis" >
    <v>       3.80000000       0.00000000       0.00000000 </v>
    <v>       0.00000000       3.80000000       0.00000000 </v>
    <v>       0.00000000       0.00000000       3.80000000 </v>
   </varray>
   <i name="volume">     54.87200000 </i>
   <varray name="rec_basis" >
    <v>       0.26315789       0.00000000       0.00000000 </v>
    <v>       0.00000000       0.26315789       0.00000000 </v>
    <v>       0.00000000       0.00000000       0.26315789 </v>
   </varray>
  </crystal>
  <varray name="positions" >
   <v>       0.00000000       0.00000000       0.00000000 </v>
   <v>      -0.50000000      -0.50000000       0.00000000 </v>
   <v>      -0.50000000       0.00000000      -0.50000000 </v>
   <v>       0.00000000      -0.50000000      -0.50000000 </v>
  </varray>
 </structure>
 <varray name="primitive_index" >
  <v type="int" >        1 </v>
  <v type="int" >        2 </v>
  <v type="int" >        3 </v>
  <v type="int" >        4 </v>
 </varray>
 <kpoints>
  <generation param="Monkhorst-Pack">
   <v type="int" name="divisions">       6        6        6 </v>
   <v name="usershift">      0.00000000       0.00000000       0.00000000 </v>
   <v name="genvec1">      0.16666667       0.00000000       0.00000000 </v>
   <v name="genvec2">      0.00000000       0.16666667       0.00000000 </v>
   <v name="genvec3">      0.00000000       0.00000000       0.16666667 </v>
   <v name="shift">      0.50000000       0.50000000       0.50000000 </v>
  </generation>
  <varray name="kpointlist" >
   <v>       0.08333333       0.08333333       0.08333333 </v>
   <v>       0.25000000       0.08333333       0.08333333 </v>
   <v>       0.41666667       0.08333333       0.08333333 </v>
   <v>       0.25000000       0.25000000       0.08333333 </v>
   <v>       0.41666667       0.25000000       0.08333333 </v>
   <v>       0.41666667       0.41666667       0.08333333 </v>
   <v>       0.25000000       0.25000000       0.25000000 </v>
   <v>       0.41666667       0.25000000       0.25000000 </v>
   <v>       0.41666667       0.41666667       0.25000000 </v>
   <v>       0.41666667       0.41666667       0.41666667 </v>
  </varray>
  <varray name="weights" >
   <v>       0.03703704 </v>
   <v>       0.11111111 </v>
   <v>       0.11111111 </v>
   <v>       0.11111111 </v>
   <v>       0.22222222 </v>
   <v>       0.11111111 </v>
   <v>       0.03703704 </v>
   <v>       0.11111111 </v>
   <v>       0.11111111 </v>
   <v>       0.03703704 </v>
  </varray>
 </kpoints>
 <parameters>
  <separator name="general" >
   <i type="string" name="SYSTEM">unknown system</i>
   <i type="logical" name="LCOMPAT"> F  </i>
  </separator>
  <separator name="electronic" >
   <i type="string" name="PREC">normal</i>
   <i name="ENMAX">    300.00000000</i>
   <i name="ENAUG">    758.23300000</i>
   <i name="EDIFF">      0.00001000</i>
   <i type="int" name="IALGO">    58</i>
   <i type="int" name="IWAVPR">    11</i>
   <i type="int" name="NBANDS">    37</i>
   <i name="NELECT">     62.00000000</i>
   <i type="int" name="TURBO">     0</i>
   <i type="int" name="IRESTART">     0</i>
   <i type="int" name="NREBOOT">     0</i>
   <i type="int" name="NMIN">     0</i>
   <i name="EREF">      0.00000000</i>
   <separator name="electronic smearing" >
    <i type="int" name="ISMEAR">     1</i>
    <i name="SIGMA">      0.20000000</i>
    <i name="KSPACING">      0.50000000</i>
    <i type="logical" name="KGAMMA"> T  </i>
   </separator>
   <separator name="electronic projectors" >
    <i type="logical" name="LREAL"> T  </i>
    <v name="ROPT">     -0.00050000     -0.00050000</v>
    <i type="int" name="LMAXPAW">  -100</i>
    <i type="int" name="LMAXMIX">     2</i>
    <i type="logical" name="NLSPLINE"> F  </i>
   </separator>
   <separator name="electronic startup" >
    <i type="int" name="ISTART">     0</i>
    <i type="int" name="ICHARG">     2</i>
    <i type="int" name="INIWAV">     1</i>
   </separator>
   <separator name="electronic spin" >
    <i type="int" name="ISPIN">     1</i>
    <i type="logical" name="LNONCOLLINEAR"> F  </i>
    <v name="MAGMOM">      1.00000000      1.00000000      1.00000000      1.00000000</v>
    <i name="NUPDOWN">     -1.00000000</i>
    <i type="logical" name="LSORBIT"> F  </i>
    <v name="SAXIS">      0.00000000      0.00000000      1.00000000</v>
    <i type="logical" name="LSPIRAL"> F  </i>
    <v name="QSPIRAL">      0.00000000      0.00000000      0.00000000</v>
    <i type="logical" name="LZEROZ"> F  </i>
   </separator>
   <separator name="electronic exchange-correlation" >
    <i type="logical" name="LASPH"> F  </i>
    <i type="logical" name="LMETAGGA"> F  </i>
   </separator>
   <separator name="electronic convergence" >
    <i type="int" name="NELM">    80</i>
    <i type="int" name="NELMDL">    -5</i>
    <i type="int" name="NELMIN">     2</i>
    <i name="ENINI">    300.00000000</i>
    <separator name="electronic convergence detail" >
     <i type="logical" name="LDIAG"> T  </i>
     <i type="logical" name="LSUBROT"> F  </i>
     <i name="WEIMIN">      0.00100000</i>
     <i name="EBREAK">      0.00000007</i>
     <i name="DEPER">      0.30000000</i>
     <i type="int" name="NRMM">     4</i>
     <i name="TIME">      0.40000000</i>
    </separator>
   </separator>
   <separator name="electronic mixer" >
    <i name="AMIX">      0.02000000</i>
    <i name="BMIX">      0.00010000</i>
    <i name="AMIN">      0.02000000</i>
    <i name="AMIX_MAG">      0.08000000</i>
    <i name="BMIX_MAG">      0.00010000</i>
    <separator name="electronic mixer details" >
     <i type="int" name="IMIX">     4</i>
     <i type="logical" name="MIXFIRST"> F  </i>
     <i type="int" name="MAXMIX">   -45</i>
     <i name="WC">    100.00000000</i>
     <i type="int" name="INIMIX">     1</i>
     <i type="int" name="MIXPRE">     1</i>
     <i type="int" name="MREMOVE">     5</i>
    </separator>
   </separator>
   <separator name="electronic dipolcorrection" >
    <i type="logical" name="LDIPOL"> F  </i>
    <i type="logical" name="LMONO"> F  </i>
    <i type="int" name="IDIPOL">     0</i>
    <i name="EPSILON">      1.00000000</i>
    <v name="DIPOL">   -100.00000000   -100.00000000   -100.00000000</v>
    <i name="EFIELD">      0.00000000</i>
   </separator>
  </separator>
  <separator name="grids" >
   <i type="int" name="NGX">    16</i>
   <i type="int" name="NGY">    16</i>
   <i type="int" name="NGZ">    16</i>
   <i type="int" name="NGXF">    32</i>
   <i type="int" name="NGYF">    32</i>
   <i type="int" name="NGZF">    32</i>
   <i type="logical" name="ADDGRID"> F  </i>
  </separator>
  <separator name="ionic" >
   <i type="int" name="NSW">    40</i>
   <i type="int" name="IBRION">     2</i>
   <i type="int" name="MDALGO">     0</i>
   <i type="int" name="ISIF">     3</i>
   <i name="PSTRESS">      0.00000000</i>
   <i name="EDIFFG">     -0.03000000</i>
   <i type="int" name="NFREE">     1</i>
   <i name="POTIM">      0.50000000</i>
   <i name="SMASS">     -3.00000000</i>
   <i name="SCALEE">      1.00000000</i>
  </separator>
  <separator name="ionic md" >
   <i name="TEBEG">      0.00010000</i>
   <i name="TEEND">      0.00010000</i>
   <i type="int" name="NBLOCK">     1</i>
   <i type="int" name="KBLOCK">    40</i>
   <i type="int" name="NPACO">   256</i>
   <i name="APACO">     16.00000000</i>
  </separator>
  <separator name="symmetry" >
   <i type="int" name="ISYM">     2</i>
   <i name="SYMPREC">      0.00001000</i>
  </separator>
  <separator name="dos" >
   <i type="int" name="LORBIT">     0</i>
   <v name="RWIGS">     -1.00000000     -1.00000000</v>
   <i type="int" name="NEDOS">   301</i>
   <i name="EMIN">     10.00000000</i>
   <i name="EMAX">    -10.00000000</i>
   <i name="EFERMI">      0.00000000</i>
  </separator>
  <separator name="writing" >
   <i type="int" name="NWRITE">     2</i>
   <i type="logical" name="LWAVE"> F  </i>
   <i type="logical" name="LDOWNSAMPLE"> F  </i>
   <i type="logical" name="LCHARG"> T  </i>
   <i type="logical" name="LPARD"> F  </i>
   <i type="logical" name="LVTOT"> F  </i>
   <i type="logical" name="LVHAR"> F  </i>
   <i type="logical" name="LELF"> F  </i>
   <i type="logical" name="LOPTICS"> F  </i>
   <v name="STM">      0.00000000      0.00000000      0.00000000      0.00000000      0.00000000      0.00000000      0.00000000</v>
  </separator>
  <separator name="performance" >
   <i type="int" name="NPAR">     1</i>
   <i type="int" name="NSIM">     4</i>
   <i type="int" name="NBLK">    -1</i>
   <i type="logical" name="LPLANE"> T  </i>
   <i type="logical" name="LSCALAPACK"> T  </i>
   <i type="logical" name="LSCAAWARE"> F  </i>
   <i type="logical" name="LSCALU"> F  </i>
   <i type="logical" name="LASYNC"> F  </i>
   <i type="logical" name="LORBITALREAL"> F  </i>
  </separator>
  <separator name="miscellaneous" >
   <i type="int" name="IDIOT">     3</i>
   <i type="int" name="ISPECIAL">     0</i>
   <i type="logical" name="LMUSIC"> F  </i>
   <v name="POMASS">    196.96600000     63.54600000</v>
   <v name="DARWINR">      0.00000000      0.00000000</v>
   <v name="DARWINV">      1.00000000      1.00000000</v>
   <i type="logical" name="LCORR"> T  </i>
  </separator>
  <i type="logical" name="GGA_COMPAT"> T  </i>
  <i type="logical" name="LBERRY"> F  </i>
  <i type="int" name="ICORELEVEL">     0</i>
  <i type="logical" name="LDAU"> F  </i>
  <i type="int" name="I_CONSTRAINED_M">     0</i>
  <separator name="electronic exchange-correlation" >
   <i type="string" name="GGA">--</i>
   <i type="int" name="VOSKOWN">     0</i>
   <i type="logical" name="LHFCALC"> F  </i>
   <i type="string" name="PRECFOCK"></i>
   <i type="logical" name="LSYMGRAD"> F  </i>
   <i type="logical" name="LHFONE"> F  </i>
   <i type="logical" name="LRHFCALC"> F  </i>
   <i type="logical" name="LTHOMAS"> F  </i>
   <i type="logical" name="LMODELHF"> F  </i>
   <i name="ENCUT4O">     -1.00000000</i>
   <i type="int" name="EXXOEP">     0</i>
   <i type="int" name="FOURORBIT">     0</i>
   <i name="AEXX">      0.00000000</i>
   <i name="HFALPHA">      0.00000000</i>
   <i name="MCALPHA">      0.00000000</i>
   <i name="ALDAX">      1.00000000</i>
   <i name="AGGAX">      1.00000000</i>
   <i name="ALDAC">      1.00000000</i>
   <i name="AGGAC">      1.00000000</i>
   <i type="int" name="NKREDX">     1</i>
   <i type="int" name="NKREDY">     1</i>
   <i type="int" name="NKREDZ">     1</i>
   <i type="logical" name="SHIFTRED"> F  </i>
   <i type="logical" name="ODDONLY"> F  </i>
   <i type="logical" name="EVENONLY"> F  </i>
   <i type="int" name="LMAXFOCK">     0</i>
   <i type="int" name="NMAXFOCKAE">     0</i>
   <i type="logical" name="LFOCKAEDFT"> F  </i>
   <i name="HFSCREEN">      0.00000000</i>
   <i name="HFSCREENC">      0.00000000</i>
   <i type="int" name="NBANDSGWLOW">     0</i>
  </separator>
  <separator name="vdW DFT" >
   <i type="logical" name="LUSE_VDW"> F  </i>
   <i name="Zab_VDW">     -0.84910000</i>
   <i name="PARAM1">      0.12340000</i>
   <i name="PARAM2">      1.00000000</i>
   <i name="PARAM3">      0.00000000</i>
  </separator>
  <separator name="model GW" >
   <i type="int" name="MODEL_GW">     0</i>
   <i name="MODEL_EPS0">      8.23080000</i>
   <i name="MODEL_ALPHA">      1.00000000</i>
  </separator>
  <separator name="linear response parameters" >
   <i type="logical" name="LEPSILON"> F  </i>
   <i type="logical" name="LRPA"> F  </i>
   <i type="logical" name="LNABLA"> F  </i>
   <i type="logical" name="LVEL"> F  </i>
   <i type="int" name="KINTER">     0</i>
   <i name="CSHIFT">      0.10000000</i>
   <i name="OMEGAMAX">     -1.00000000</i>
   <i name="DEG_THRESHOLD">      0.00200000</i>
   <i name="RTIME">     -0.10000000</i>
   <i name="WPLASMAI">      0.00000000</i>
   <v name="DFIELD">      0.00000000      0.00000000      0.00000000</v>
   <v name="WPLASMA">      0.00000000      0.00000000      0.00000000      0.00000000      0.00000000      0.00000000      0.00000000      0.00000000      0.00000000</v>
  </separator>
  <separator name="orbital magnetization" >
   <i type="logical" name="NUCIND"> F  </i>
   <v name="MAGPOS">      0.00000000      0.00000000      0.00000000</v>
   <i type="logical" name="LNICSALL"> T  </i>
   <i type="logical" name="ORBITALMAG"> F  </i>
   <i type="logical" name="LMAGBLOCH"> F  </i>
   <i type="logical" name="LCHIMAG"> F  </i>
   <i type="logical" name="LGAUGE"> T  </i>
   <i type="int" name="MAGATOM">     0</i>
   <v name="MAGDIPOL">      0.00000000      0.00000000      0.00000000</v>
   <v name="AVECCONST">      0.00000000      0.00000000      0.00000000</v>
  </separator>
  <separator name="response functions" >
   <i type="logical" name="LADDER"> F  </i>
   <i type="logical" name="LRPAFORCE"> F  </i>
   <i type="logical" name="LFXC"> F  </i>
   <i type="logical" name="LHARTREE"> T  </i>
   <i type="int" name="IBSE">     0</i>
   <v type="int" name="KPOINT">    -1     0     0     0</v>
   <i type="logical" name="LTCTE"> F  </i>
   <i type="logical" name="LTETE"> F  </i>
   <i type="logical" name="LTRIPLET"> F  </i>
   <i type="logical" name="LFXCEPS"> F  </i>
   <i type="logical" name="LFXHEG"> F  </i>
   <i type="int" name="NATURALO">     2</i>
   <i type="logical" name="L2ORDER"> F  </i>
   <i type="logical" name="LMP2LT"> F  </i>
   <i type="logical" name="LUSEW"> F  </i>
   <i name="ENCUTGW">     -2.00000000</i>
   <i name="ENCUTGWSOFT">     -2.00000000</i>
   <i name="ENCUTLF">     -1.00000000</i>
   <i type="int" name="LMAXMP2">    -1</i>
   <i name="SCISSOR">      0.00000000</i>
   <i type="int" name="NOMEGA">     0</i>
   <i type="int" name="NOMEGAR">     0</i>
   <i type="int" name="NBANDSGW">    -1</i>
   <i type="int" name="NBANDSO">    -1</i>
   <i type="int" name="NBANDSV">    -1</i>
   <i type="int" name="NELM">    80</i>
   <i type="int" name="NELMHF">     1</i>
   <i type="int" name="DIM">     3</i>
   <i type="int" name="ANTIRES">     0</i>
   <i name="OMEGAMAX">    -30.00000000</i>
   <i name="OMEGAMIN">    -30.00000000</i>
   <i name="OMEGATL">   -200.00000000</i>
   <i type="int" name="OMEGAGRID">   140</i>
   <i name="CSHIFT">     -0.10000000</i>
   <i type="logical" name="SELFENERGY"> F  </i>
   <i type="logical" name="LSPECTRAL"> F  </i>
   <i type="logical" name="LSPECTRALGW"> F  </i>
   <i type="logical" name="LSINGLES"> F  </i>
   <i type="logical" name="LFERMIGW"> F  </i>
   <i type="logical" name="ODDONLYGW"> F  </i>
   <i type="logical" name="EVENONLYGW"> F  </i>
   <i type="int" name="NKREDLFX">     1</i>
   <i type="int" name="NKREDLFY">     1</i>
   <i type="int" name="NKREDLFZ">     1</i>
   <i type="int" name="MAXMEM">  2800</i>
   <i type="int" name="TELESCOPE">     0</i>
   <i type="int" name="TAUPAR">     1</i>
   <i type="int" name="OMEGAPAR">    -1</i>
   <i name="LAMBDA">      1.00000000</i>
  </separator>
  <separator name="External order field" >
   <i name="OFIELD_KAPPA">      0.00000000</i>
   <v name="OFIELD_K">      0.00000000      0.00000000      0.00000000</v>
   <i name="OFIELD_Q6_NEAR">      0.00000000</i>
   <i name="OFIELD_Q6_FAR">      0.00000000</i>
   <i name="OFIELD_A">      0.00000000</i>
  </separator>
 </parameters>
 <atominfo>
  <atoms>       4 </atoms>
  <types>       2 </types>
  <array name="atoms" >
   <dimension dim="1">ion</dimension>
   <field type="string">element</field>
   <field type="int">atomtype</field>
   <set>
    <rc><c>Au</c><c>   1</c></rc>
    <rc><c>Cu</c><c>   2</c></rc>
    <rc><c>Cu</c><c>   2</c></rc>
    <rc><c>Cu</c><c>   2</c></rc>
   </set>
  </array>
  <array name="atomtypes" >
   <dimension dim="1">type</dimension>
   <field type="int">atomspertype</field>
   <field type="string">element</field>
   <field>mass</field>
   <field>valence</field>
   <field type="string">pseudopotential</field>
   <set>
    <rc><c>   1</c><c>Au</c><c>    196.96600000</c><c>     11.00000000</c><c> PAW_PBE Au 06Sep2000                   </c></rc>
    <rc><c>   3</c><c>Cu</c><c>     63.54600000</c><c>     17.00000000</c><c> PAW_PBE Cu_pv 06Sep2000                </c></rc>
   </set>
  </array>
 </atominfo>
 <structure name="initialpos" >
  <crystal>
   <varray name="basis" >
    <v>       3.80000000       0.00000000       0.00000000 </v>
    <v>       0.00000000       3.80000000       0.00000000 </v>
    <v>       0.00000000       0.00000000       3.80000000 </v>
   </varray>
   <i name="volume">     54.87200000 </i>
   <varray name="rec_basis" >
    <v>       0.26315789       0.00000000       0.00000000 </v>
    <v>       0.00000000       0.26315789       0.00000000 </v>
    <v>       0.00000000       0.00000000       0.26315789 </v>
   </varray>
  </crystal>
  <varray name="positions" >
   <v>       0.00000000       0.00000000       0.00000000 </v>
   <v>       0.50000000       0.50000000       0.00000000 </v>
   <v>       0.50000000       0.00000000       0.50000000 </v>
   <v>       0.00000000       0.50000000       0.50000000 </v>
  </varray>
 </structure>
 <calculation>
  <scstep>
   <time name="total">    0.20    0.40</time>
   <energy>
    <i name="alphaZ">    553.11052850 </i>
    <i name="ewald">  -8463.53449700 </i>
    <i name="hartreedc">  -4388.70881502 </i>
    <i name="XCdc">    339.61575690 </i>
    <i name="pawpsdc">  10439.60561056 </i>
    <i name="pawaedc"> -10863.16027776 </i>
    <i name="eentropy">     -0.00772531 </i>
    <i name="bandstr">   -300.11966736 </i>
    <i name="atom">  13280.20280305 </i>
    <i name="e_fr_energy">    597.00371656 </i>
    <i name="e_wo_entrp">    597.01144188 </i>
    <i name="e_0_energy">    597.00629167 </i>
   </energy>
  </scstep>
  <scstep>
   <time name="total">    0.16    0.31</time>
   <energy>
    <i name="e_fr_energy">     13.14185146 </i>
    <i name="e_wo_entrp">     13.14638814 </i>
    <i name="e_0_energy">     13.14336369 </i>
   </energy>
  </scstep>
  <scstep>
   <time name="total">    0.17    0.37</time>
   <energy>
    <i name="e_fr_energy">    -16.62018744 </i>
    <i name="e_wo_entrp">    -16.61711847 </i>
    <i name="e_0_energy">    -16.61916445 </i>
   </energy>
  </scstep>
  <scstep>
   <time name="total">    0.17    0.32</time>
   <energy>
    <i name="e_fr_energy">    -17.49412674 </i>
    <i name="e_wo_entrp">    -17.49188779 </i>
    <i name="e_0_energy">    -17.49338042 </i>
   </energy>
  </scstep>
  <scstep>
   <time name="total">    0.17    0.32</time>
   <energy>
    <i name="e_fr_energy">    -17.50606883 </i>
    <i name="e_wo_entrp">    -17.50382125 </i>
    <i name="e_0_energy">    -17.50531964 </i>
   </energy>
  </scstep>
  <scstep>
   <time name="total">    0.18    0.38</time>
   <energy>
    <i name="e_fr_energy">     -4.55106773 </i>
    <i name="e_wo_entrp">     -4.54606697 </i>
    <i name="e_0_energy">     -4.54940081 </i>
   </energy>
  </scstep>
  <scstep>
   <time name="total">    0.17    0.32</time>
   <energy>
    <i name="e_fr_energy">    -13.23359857 </i>
    <i name="e_wo_entrp">    -13.23105569 </i>
    <i name="e_0_energy">    -13.23275094 </i>
   </energy>
  </scstep>
  <scstep>
   <time name="total">    0.17    0.37</time>
   <energy>
    <i name="e_fr_energy">    -14.01539461 </i>
    <i name="e_wo_entrp">    -14.01327196 </i>
    <i name="e_0_energy">    -14.01468706 </i>
   </energy>
  </scstep>
  <scstep>
   <time name="total">    0.17    0.32</time>
   <energy>
    <i name="e_fr_energy">    -14.29767569 </i>
    <i name="e_wo_entrp">    -14.29034598 </i>
    <i name="e_0_energy">    -14.29523245 </i>
   </energy>
  </scstep>
  <scstep>
   <time name="total">    0.17    0.38</time>
   <energy>
    <i name="e_fr_energy">    -14.48878302 </i>
    <i name="e_wo_entrp">    -14.48019245 </i>
    <i name="e_0_energy">    -14.48591950 </i>
   </energy>
  </scstep>
  <scstep>
   <time name="total">    0.17    0.31</time>
   <energy>
    <i name="e_fr_energy">    -14.51800713 </i>
    <i name="e_wo_entrp">    -14.50889596 </i>
    <i name="e_0_energy">    -14.51497007 </i>
   </energy>
  </scstep>
  <scstep>
   <time name="total">    0.17    0.32</time>
   <energy>
    <i name="e_fr_energy">    -14.52713618 </i>
    <i name="e_wo_entrp">    -14.51790440 </i>
    <i name="e_0_energy">    -14.52405892 </i>
   </energy>
  </scstep>
  <scstep>
   <time name="total">    0.17    0.37</time>
   <energy>
    <i name="e_fr_energy">    -14.52901259 </i>
    <i name="e_wo_entrp">    -14.51974120 </i>
    <i name="e_0_energy">    -14.52592213 </i>
   </energy>
  </scstep>
  <scstep>
   <time name="total">    0.17    0.32</time>
   <energy>
    <i name="e_fr_energy">    -14.52938455 </i>
    <i name="e_wo_entrp">    -14.52010456 </i>
    <i name="e_0_energy">    -14.52629122 </i>
   </energy>
  </scstep>
  <scstep>
   <time name="total">    0.17    0.32</time>
   <energy>
    <i name="e_fr_energy">    -14.52947714 </i>
    <i name="e_wo_entrp">    -14.52018146 </i>
    <i name="e_0_energy">    -14.52637858 </i>
   </energy>
  </scstep>
  <scstep>
   <time name="total">    0.17    0.37</time>
   <energy>
    <i name="e_fr_energy">    -14.52950730 </i>
    <i name="e_wo_entrp">    -14.52020963 </i>
    <i name="e_0_energy">    -14.52640808 </i>
   </energy>
  </scstep>
  <scstep>
   <time name="total">    0.17    0.32</time>
   <energy>
    <i name="e_fr_energy">    -14.52951872 </i>
    <i name="e_wo_entrp">    -14.52021369 </i>
    <i name="e_0_energy">    -14.52641704 </i>
   </energy>
  </scstep>
  <scstep>
   <time name="total">    0.19    0.39</time>
   <energy>
    <i name="alphaZ">    553.11052850 </i>
    <i name="ewald">  -8463.53449700 </i>
    <i name="hartreedc">  -4269.40181912 </i>
    <i name="XCdc">    335.23134584 </i>
    <i name="pawpsdc">  10411.43166333 </i>
    <i name="pawaedc"> -10839.01502107 </i>
    <i name="eentropy">     -0.00930687 </i>
    <i name="bandstr">  -1022.54522100 </i>
    <i name="atom">  13280.20280305 </i>
    <i name="e_fr_energy">    -14.52952250 </i>
    <i name="e_wo_entrp">    -14.52021563 </i>
    <i name="e_0_energy">    -14.52642021 </i>
   </energy>
  </scstep>
  <structure>
   <crystal>
    <varray name="basis" >
     <v>       3.80000000       0.00000000       0.00000000 </v>
     <v>       0.00000000       3.80000000       0.00000000 </v>
     <v>       0.00000000       0.00000000       3.80000000 </v>
    </varray>
    <i name="volume">     54.87200000 </i>
    <varray name="rec_basis" >
     <v>       0.26315789       0.00000000       0.00000000 </v>
     <v>       0.00000000       0.26315789       0.00000000 </v>
     <v>       0.00000000       0.00000000       0.26315789 </v>
    </varray>
   </crystal>
   <varray name="positions" >
    <v>       0.00000000       0.00000000       0.00000000 </v>
    <v>       0.50000000       0.50000000       0.00000000 </v>
    <v>       0.50000000       0.00000000       0.50000000 </v>
    <v>       0.00000000       0.50000000       0.50000000 </v>
   </varray>
  </structure>
  <varray name="forces" >
   <v>       0.00000000       0.00000000       0.00000000 </v>
   <v>      -0.00000000       0.00000000       0.00000000 </v>
   <v>      -0.00000000      -0.00000000      -0.00000000 </v>
   <v>       0.00000000       0.00000000       0.00000000 </v>
  </varray>
  <varray name="stress" >
   <v>    -947.50984848      -0.00000000      -0.00000000 </v>
   <v>      -0.00000000    -947.50984848       0.00000000 </v>
   <v>       0.00000000      -0.00000000    -947.50984848 </v>
  </varray>
  <energy>
   <i name="e_fr_energy">    -14.52952250 </i>
   <i name="e_wo_entrp">    -14.52642021 </i>
   <i name="e_0_energy">     -0.00930687 </i>
  </energy>
  <time name="totalsc">    3.68    7.38</time>
 </calculation>
 <calculation>
  <scstep>
   <time name="total">    0.36    0.71</time>
   <energy>
    <i name="alphaZ">   2453.38970687 </i>
    <i name="ewald"> -13906.03462913 </i>
    <i name="hartreedc">  -3304.40014673 </i>
    <i name="XCdc">    446.09593218 </i>
    <i name="pawpsdc">  18139.82868558 </i>
    <i name="pawaedc"> -19718.30304998 </i>
    <i name="eentropy">      0.00404670 </i>
    <i name="bandstr">   4063.08140642 </i>
    <i name="atom">  13280.20280305 </i>
    <i name="e_fr_energy">   1453.85140139 </i>
    <i name="e_wo_entrp">   1453.84735469 </i>
    <i name="e_0_energy">   1453.85005249 </i>
   </energy>
  </scstep>
  <scstep>
   <time name="total">    0.36    0.71</time>
   <energy>
    <i name="e_fr_energy">    368.67114326 </i>
    <i name="e_wo_entrp">    368.67251964 </i>
    <i name="e_0_energy">    368.67160205 </i>
   </energy>
  </scstep>
  <scstep>
   <time name="total">    0.35    0.70</time>
   <energy>
    <i name="e_fr_energy">    271.08714948 </i>
    <i name="e_wo_entrp">    271.09063879 </i>
    <i name="e_0_energy">    271.08831258 </i>
   </energy>
  </scstep>
  <scstep>
   <time name="total">    0.36    0.71</time>
   <energy>
    <i name="e_fr_energy">    247.76791874 </i>
    <i name="e_wo_entrp">    247.76457101 </i>
    <i name="e_0_energy">    247.76680283 </i>
   </energy>
  </scstep>
  <scstep>
   <time name="total">    0.35    0.71</time>
   <energy>
    <i name="e_fr_energy">    241.32177707 </i>
    <i name="e_wo_entrp">    241.33356045 </i>
    <i name="e_0_energy">    241.32570486 </i>
   </energy>
  </scstep>
  <scstep>
   <time name="total">    0.36    0.70</time>
   <energy>
    <i name="e_fr_energy">    238.53629672 </i>
    <i name="e_wo_entrp">    238.53248987 </i>
    <i name="e_0_energy">    238.53502777 </i>
   </energy>
  </scstep>
  <scstep>
   <time name="total">    0.36    0.76</time>
   <energy>
    <i name="e_fr_energy">    238.00176343 </i>
    <i name="e_wo_entrp">    237.99540246 </i>
    <i name="e_0_energy">    237.99964311 </i>
   </energy>
  </scstep>
  <scstep>
   <time name="total">    0.36    0.71</time>
   <energy>
    <i name="e_fr_energy">    237.72233091 </i>
    <i name="e_wo_entrp">    237.71945915 </i>
    <i name="e_0_energy">    237.72137366 </i>
   </energy>
  </scstep>
  <scstep>
   <time name="total">    0.50    1.00</time>
   <energy>
    <i name="e_fr_energy">    237.67643340 </i>
    <i name="e_wo_entrp">    237.67346108 </i>
    <i name="e_0_energy">    237.67544263 </i>
   </energy>
  </scstep>
  <scstep>
   <time name="total">    0.36    0.71</time>
   <energy>
    <i name="e_fr_energy">    238.05371290 </i>
    <i name="e_wo_entrp">    238.05123689 </i>
    <i name="e_0_energy">    238.05288756 </i>
   </energy>
  </scstep>
  <scstep>
   <time name="total">    0.35    0.70</time>
   <energy>
    <i name="e_fr_energy">    237.66030729 </i>
    <i name="e_wo_entrp">    237.65881477 </i>
    <i name="e_0_energy">    237.65980978 </i>
   </energy>
  </scstep>
  <scstep>
   <time name="total">    0.35    0.70</time>
   <energy>
    <i name="e_fr_energy">    237.63290838 </i>
    <i name="e_wo_entrp">    237.63160997 </i>
    <i name="e_0_energy">    237.63247558 </i>
   </energy>
  </scstep>
  <scstep>
   <time name="total">    0.35    0.70</time>
   <energy>
    <i name="e_fr_energy">    237.62482068 </i>
    <i name="e_wo_entrp">    237.62353006 </i>
    <i name="e_0_energy">    237.62439048 </i>
   </energy>
  </scstep>
  <scstep>
   <time name="total">    0.36    0.71</time>
   <energy>
    <i name="e_fr_energy">    237.62336680 </i>
    <i name="e_wo_entrp">    237.62207740 </i>
    <i name="e_0_energy">    237.62293700 </i>
   </energy>
  </scstep>
  <scstep>
   <time name="total">    0.36    0.70</time>
   <energy>
    <i name="e_fr_energy">    237.62297572 </i>
    <i name="e_wo_entrp">    237.62168658 </i>
    <i name="e_0_energy">    237.62254601 </i>
   </energy>
  </scstep>
  <scstep>
   <time name="total">    0.36    0.76</time>
   <energy>
    <i name="e_fr_energy">    237.62287622 </i>
    <i name="e_wo_entrp">    237.62158714 </i>
    <i name="e_0_energy">    237.62244652 </i>
   </energy>
  </scstep>
  <scstep>
   <time name="total">    0.36    0.71</time>
   <energy>
    <i name="e_fr_energy">    237.62285415 </i>
    <i name="e_wo_entrp">    237.62156508 </i>
    <i name="e_0_energy">    237.62242446 </i>
   </energy>
  </scstep>
  <scstep>
   <time name="total">    0.38    0.73</time>
   <energy>
    <i name="alphaZ">   2453.38970687 </i>
    <i name="ewald"> -13906.03462913 </i>
    <i name="hartreedc">  -1985.68851118 </i>
    <i name="XCdc">    384.05745894 </i>
    <i name="pawpsdc">  17107.83558754 </i>
    <i name="pawaedc"> -17717.62892126 </i>
    <i name="eentropy">      0.00128907 </i>
    <i name="bandstr">    621.48806453 </i>
    <i name="atom">  13280.20280305 </i>
    <i name="e_fr_energy">    237.62284843 </i>
    <i name="e_wo_entrp">    237.62155936 </i>
    <i name="e_0_energy">    237.62241874 </i>
   </energy>
  </scstep>
  <structure>
   <crystal>
    <varray name="basis" >
     <v>       2.31276794      -0.00000000      -0.00000000 </v>
     <v>      -0.00000000       2.31276794       0.00000000 </v>
     <v>       0.00000000      -0.00000000       2.31276794 </v>
    </varray>
    <i name="volume">     12.37075416 </i>
    <varray name="rec_basis" >
     <v>       0.43238233       0.00000000      -0.00000000 </v>
     <v>       0.00000000       0.43238233       0.00000000 </v>
     <v>       0.00000000      -0.00000000       0.43238233 </v>
    </varray>
   </crystal>
   <varray name="positions" >
    <v>       0.00000000       0.00000000       0.00000000 </v>
    <v>       0.50000000       0.50000000       0.00000000 </v>
    <v>       0.50000000      -0.00000000       0.50000000 </v>
    <v>       0.00000000       0.50000000       0.50000000 </v>
   </varray>
  </structure>
  <varray name="forces" >
   <v>      -0.00000000      -0.00000000      -0.00000000 </v>
   <v>       0.00000000       0.00000000      -0.00000000 </v>
   <v>      -0.00000000      -0.00000000       0.00000000 </v>
   <v>      -0.00000000       0.00000000       0.00000000 </v>
  </varray>
  <varray name="stress" >
   <v>   77078.70776445       0.00000000      -0.00000000 </v>
   <v>      -0.00000000   77078.70776445      -0.00000000 </v>
   <v>       0.00000000      -0.00000000   77078.70776445 </v>
  </varray>
  <energy>
   <i name="e_fr_energy">    237.62284843 </i>
   <i name="e_wo_entrp">    237.62241874 </i>
   <i name="e_0_energy">      0.00128907 </i>
  </energy>
  <time name="totalsc">    8.11   16.21</time>
 </calculation>
 <calculation>
  <scstep>
   <time name="total">    0.17    0.32</time>
   <energy>
    <i name="alphaZ">    588.09643990 </i>
    <i name="ewald">  -8638.34696332 </i>
    <i name="hartreedc">   -224.12284716 </i>
    <i name="XCdc">    194.96063442 </i>
    <i name="pawpsdc">   3905.81455842 </i>
    <i name="pawaedc">  -3866.77650357 </i>
    <i name="eentropy">     -0.00938508 </i>
    <i name="bandstr">   -602.68981793 </i>
    <i name="atom">  13280.20280305 </i>
    <i name="e_fr_energy">   4637.13959288 </i>
    <i name="e_wo_entrp">   4637.14897796 </i>
    <i name="e_0_energy">   4637.14272124 </i>
   </energy>
  </scstep>
  <scstep>
   <time name="total">    0.17    0.38</time>
   <energy>
    <i name="e_fr_energy">   2564.49703852 </i>
    <i name="e_wo_entrp">   2564.49340140 </i>
    <i name="e_0_energy">   2564.49582615 </i>
   </energy>
  </scstep>
  <scstep>
   <time name="total">    0.17    0.32</time>
   <energy>
    <i name="e_fr_energy">   2468.22248849 </i>
    <i name="e_wo_entrp">   2468.21892239 </i>
    <i name="e_0_energy">   2468.22129979 </i>
   </energy>
  </scstep>
  <scstep>
   <time name="total">    0.17    0.37</time>
   <energy>
    <i name="e_fr_energy">   2302.89018661 </i>
    <i name="e_wo_entrp">   2302.89491729 </i>
    <i name="e_0_energy">   2302.89176351 </i>
   </energy>
  </scstep>
  <scstep>
   <time name="total">    0.18    0.33</time>
   <energy>
    <i name="e_fr_energy">   1758.93753882 </i>
    <i name="e_wo_entrp">   1758.93814044 </i>
    <i name="e_0_energy">   1758.93773936 </i>
   </energy>
  </scstep>
  <scstep>
   <time name="total">    0.17    0.37</time>
   <energy>
    <i name="e_fr_energy">    722.59279096 </i>
    <i name="e_wo_entrp">    722.60785322 </i>
    <i name="e_0_energy">    722.59781171 </i>
   </energy>
  </scstep>
  <scstep>
   <time name="total">    0.17    0.32</time>
   <energy>
    <i name="e_fr_energy">    306.64371163 </i>
    <i name="e_wo_entrp">    306.64809301 </i>
    <i name="e_0_energy">    306.64517209 </i>
   </energy>
  </scstep>
  <scstep>
   <time name="total">    0.17    0.37</time>
   <energy>
    <i name="e_fr_energy">    137.76108484 </i>
    <i name="e_wo_entrp">    137.76570375 </i>
    <i name="e_0_energy">    137.76262447 </i>
   </energy>
  </scstep>
  <scstep>
   <time name="total">    0.17    0.32</time>
   <energy>
    <i name="e_fr_energy">     61.49793171 </i>
    <i name="e_wo_entrp">     61.50742268 </i>
    <i name="e_0_energy">     61.50109537 </i>
   </energy>
  </scstep>
  <scstep>
   <time name="total">    0.17    0.37</time>
   <energy>
    <i name="e_fr_energy">     26.55664874 </i>
    <i name="e_wo_entrp">     26.56566409 </i>
    <i name="e_0_energy">     26.55965385 </i>
   </energy>
  </scstep>
  <scstep>
   <time name="total">    0.17    0.32</time>
   <energy>
    <i name="e_fr_energy">      8.46734901 </i>
    <i name="e_wo_entrp">      8.46937105 </i>
    <i name="e_0_energy">      8.46802302 </i>
   </energy>
  </scstep>
  <scstep>
   <time name="total">    0.17    0.37</time>
   <energy>
    <i name="e_fr_energy">     -3.42553486 </i>
    <i name="e_wo_entrp">     -3.42610269 </i>
    <i name="e_0_energy">     -3.42572413 </i>
   </energy>
  </scstep>
  <scstep>
   <time name="total">    0.17    0.32</time>
   <energy>
    <i name="e_fr_energy">     -8.73317525 </i>
    <i name="e_wo_entrp">     -8.73925893 </i>
    <i name="e_0_energy">     -8.73520314 </i>
   </energy>
  </scstep>
  <scstep>
   <time name="total">    0.17    0.37</time>
   <energy>
    <i name="e_fr_energy">    -11.65317239 </i>
    <i name="e_wo_entrp">    -11.64868212 </i>
    <i name="e_0_energy">    -11.65167564 </i>
   </energy>
  </scstep>
  <scstep>
   <time name="total">    0.17    0.33</time>
   <energy>
    <i name="e_fr_energy">    -13.31281283 </i>
    <i name="e_wo_entrp">    -13.30747356 </i>
    <i name="e_0_energy">    -13.31103307 </i>
   </energy>
  </scstep>
  <scstep>
   <time name="total">    0.17    0.37</time>
   <energy>
    <i name="e_fr_energy">    -14.32166436 </i>
    <i name="e_wo_entrp">    -14.31636301 </i>
    <i name="e_0_energy">    -14.31989724 </i>
   </energy>
  </scstep>
  <scstep>
   <time name="total">    0.17    0.32</time>
   <energy>
    <i name="e_fr_energy">    -14.69889872 </i>
    <i name="e_wo_entrp">    -14.69809361 </i>
    <i name="e_0_energy">    -14.69863035 </i>
   </energy>
  </scstep>
  <scstep>
   <time name="total">    0.17    0.37</time>
   <energy>
    <i name="e_fr_energy">    -15.20257817 </i>
    <i name="e_wo_entrp">    -15.19730386 </i>
    <i name="e_0_energy">    -15.20082007 </i>
   </energy>
  </scstep>
  <scstep>
   <time name="total">    0.17    0.32</time>
   <energy>
    <i name="e_fr_energy">    -15.30998965 </i>
    <i name="e_wo_entrp">    -15.30756860 </i>
    <i name="e_0_energy">    -15.30918264 </i>
   </energy>
  </scstep>
  <scstep>
   <time name="total">    0.17    0.32</time>
   <energy>
    <i name="e_fr_energy">    -15.44921700 </i>
    <i name="e_wo_entrp">    -15.44285107 </i>
    <i name="e_0_energy">    -15.44709502 </i>
   </energy>
  </scstep>
  <scstep>
   <time name="total">    0.17    0.37</time>
   <energy>
    <i name="e_fr_energy">    -15.42515397 </i>
    <i name="e_wo_entrp">    -15.41840275 </i>
    <i name="e_0_energy">    -15.42290356 </i>
   </energy>
  </scstep>
  <scstep>
   <time name="total">    0.17    0.32</time>
   <energy>
    <i name="e_fr_energy">    -15.84470772 </i>
    <i name="e_wo_entrp">    -15.83904843 </i>
    <i name="e_0_energy">    -15.84282129 </i>
   </energy>
  </scstep>
  <scstep>
   <time name="total">    0.17    0.37</time>
   <energy>
    <i name="e_fr_energy">    -16.00940952 </i>
    <i name="e_wo_entrp">    -16.00409027 </i>
    <i name="e_0_energy">    -16.00763644 </i>
   </energy>
  </scstep>
  <scstep>
   <time name="total">    0.17    0.32</time>
   <energy>
    <i name="e_fr_energy">    -16.08368211 </i>
    <i name="e_wo_entrp">    -16.07828811 </i>
    <i name="e_0_energy">    -16.08188411 </i>
   </energy>
  </scstep>
  <scstep>
   <time name="total">    0.17    0.37</time>
   <energy>
    <i name="e_fr_energy">    -16.09996453 </i>
    <i name="e_wo_entrp">    -16.09469374 </i>
    <i name="e_0_energy">    -16.09820760 </i>
   </energy>
  </scstep>
  <scstep>
   <time name="total">    0.17    0.32</time>
   <energy>
    <i name="e_fr_energy">    -16.10174061 </i>
    <i name="e_wo_entrp">    -16.09644907 </i>
    <i name="e_0_energy">    -16.09997676 </i>
   </energy>
  </scstep>
  <scstep>
   <time name="total">    0.17    0.37</time>
   <energy>
    <i name="e_fr_energy">    -16.10239176 </i>
    <i name="e_wo_entrp">    -16.09711625 </i>
    <i name="e_0_energy">    -16.10063326 </i>
   </energy>
  </scstep>
  <scstep>
   <time name="total">    0.17    0.32</time>
   <energy>
    <i name="e_fr_energy">    -16.10250167 </i>
    <i name="e_wo_entrp">    -16.09723660 </i>
    <i name="e_0_energy">    -16.10074665 </i>
   </energy>
  </scstep>
  <scstep>
   <time name="total">    0.17    0.37</time>
   <energy>
    <i name="e_fr_energy">    -16.10253840 </i>
    <i name="e_wo_entrp">    -16.09728574 </i>
    <i name="e_0_energy">    -16.10078751 </i>
   </energy>
  </scstep>
  <scstep>
   <time name="total">    0.17    0.32</time>
   <energy>
    <i name="e_fr_energy">    -16.10255472 </i>
    <i name="e_wo_entrp">    -16.09729884 </i>
    <i name="e_0_energy">    -16.10080276 </i>
   </energy>
  </scstep>
  <scstep>
   <time name="total">    0.19    0.39</time>
   <energy>
    <i name="alphaZ">    588.09643990 </i>
    <i name="ewald">  -8638.34696332 </i>
    <i name="hartreedc">  -4161.75888036 </i>
    <i name="XCdc">    335.91669362 </i>
    <i name="pawpsdc">  10418.77628280 </i>
    <i name="pawaedc"> -10851.22037947 </i>
    <i name="eentropy">     -0.00525678 </i>
    <i name="bandstr">   -987.76329873 </i>
    <i name="atom">  13280.20280305 </i>
    <i name="e_fr_energy">    -16.10255838 </i>
    <i name="e_wo_entrp">    -16.09730160 </i>
    <i name="e_0_energy">    -16.10080612 </i>
   </energy>
  </scstep>
  <structure>
   <crystal>
    <varray name="basis" >
     <v>       3.72310017      -0.00000000      -0.00000000 </v>
     <v>      -0.00000000       3.72310017       0.00000000 </v>
     <v>       0.00000000      -0.00000000       3.72310017 </v>
    </varray>
    <i name="volume">     51.60765966 </i>
    <varray name="rec_basis" >
     <v>       0.26859336       0.00000000      -0.00000000 </v>
     <v>       0.00000000       0.26859336       0.00000000 </v>
     <v>       0.00000000      -0.00000000       0.26859336 </v>
    </varray>
   </crystal>
   <varray name="positions" >
    <v>      -0.00000000      -0.00000000      -0.00000000 </v>
    <v>       0.50000000       0.50000000      -0.00000000 </v>
    <v>       0.50000000       0.00000000       0.50000000 </v>
    <v>      -0.00000000       0.50000000       0.50000000 </v>
   </varray>
  </structure>
  <varray name="forces" >
   <v>      -0.00000000      -0.00000000      -0.00000000 </v>
   <v>       0.00000000       0.00000000      -0.00000000 </v>
   <v>      -0.00000000      -0.00000000       0.00000000 </v>
   <v>      -0.00000000       0.00000000       0.00000000 </v>
  </varray>
  <varray name="stress" >
   <v>    -594.89393387      -0.00000000      -0.00000000 </v>
   <v>      -0.00000000    -594.89393387       0.00000000 </v>
   <v>      -0.00000000       0.00000000    -594.89393387 </v>
  </varray>
  <energy>
   <i name="e_fr_energy">    -16.10255838 </i>
   <i name="e_wo_entrp">    -16.10080612 </i>
   <i name="e_0_energy">     -0.00525678 </i>
  </energy>
  <time name="totalsc">    5.88   11.79</time>
 </calculation>
 <calculation>
  <scstep>
   <time name="total">    0.18    0.33</time>
   <energy>
    <i name="alphaZ">    609.44613907 </i>
    <i name="ewald">  -8741.63972405 </i>
    <i name="hartreedc">  -4228.55385054 </i>
    <i name="XCdc">    341.29610690 </i>
    <i name="pawpsdc">  10591.16848564 </i>
    <i name="pawaedc"> -11055.54776030 </i>
    <i name="eentropy">     -0.00291961 </i>
    <i name="bandstr">   -810.67800726 </i>
    <i name="atom">  13280.20280305 </i>
    <i name="e_fr_energy">    -14.31106427 </i>
    <i name="e_wo_entrp">    -14.30814466 </i>
    <i name="e_0_energy">    -14.31009106 </i>
   </energy>
  </scstep>
  <scstep>
   <time name="total">    0.18    0.38</time>
   <energy>
    <i name="e_fr_energy">    -16.45546306 </i>
    <i name="e_wo_entrp">    -16.45195496 </i>
    <i name="e_0_energy">    -16.45429369 </i>
   </energy>
  </scstep>
  <scstep>
   <time name="total">    0.18    0.33</time>
   <energy>
    <i name="e_fr_energy">    -16.61430948 </i>
    <i name="e_wo_entrp">    -16.61021217 </i>
    <i name="e_0_energy">    -16.61294371 </i>
   </energy>
  </scstep>
  <scstep>
   <time name="total">    0.18    0.38</time>
   <energy>
    <i name="e_fr_energy">    -16.64047718 </i>
    <i name="e_wo_entrp">    -16.63610141 </i>
    <i name="e_0_energy">    -16.63901859 </i>
   </energy>
  </scstep>
  <scstep>
   <time name="total">    0.18    0.33</time>
   <energy>
    <i name="e_fr_energy">    -16.65462954 </i>
    <i name="e_wo_entrp">    -16.65000732 </i>
    <i name="e_0_energy">    -16.65308880 </i>
   </energy>
  </scstep>
  <scstep>
   <time name="total">    0.18    0.38</time>
   <energy>
    <i name="e_fr_energy">    -16.65933964 </i>
    <i name="e_wo_entrp">    -16.65442374 </i>
    <i name="e_0_energy">    -16.65770100 </i>
   </energy>
  </scstep>
  <scstep>
   <time name="total">    0.18    0.38</time>
   <energy>
    <i name="e_fr_energy">    -16.66268648 </i>
    <i name="e_wo_entrp">    -16.65770038 </i>
    <i name="e_0_energy">    -16.66102445 </i>
   </energy>
  </scstep>
  <scstep>
   <time name="total">    0.18    0.33</time>
   <energy>
    <i name="e_fr_energy">    -16.66342421 </i>
    <i name="e_wo_entrp">    -16.65843262 </i>
    <i name="e_0_energy">    -16.66176035 </i>
   </energy>
  </scstep>
  <scstep>
   <time name="total">    0.18    0.38</time>
   <energy>
    <i name="e_fr_energy">    -16.66361816 </i>
    <i name="e_wo_entrp">    -16.65861820 </i>
    <i name="e_0_energy">    -16.66195151 </i>
   </energy>
  </scstep>
  <scstep>
   <time name="total">    0.18    0.33</time>
   <energy>
    <i name="e_fr_energy">    -16.66366671 </i>
    <i name="e_wo_entrp">    -16.65866487 </i>
    <i name="e_0_energy">    -16.66199943 </i>
   </energy>
  </scstep>
  <scstep>
   <time name="total">    0.20    0.39</time>
   <energy>
    <i name="alphaZ">    609.44613907 </i>
    <i name="ewald">  -8741.63972405 </i>
    <i name="hartreedc">  -4099.50187817 </i>
    <i name="XCdc">    336.34875650 </i>
    <i name="pawpsdc">  10429.17177748 </i>
    <i name="pawaedc"> -10864.07466380 </i>
    <i name="eentropy">     -0.00499949 </i>
    <i name="bandstr">   -966.61188484 </i>
    <i name="atom">  13280.20280305 </i>
    <i name="e_fr_energy">    -16.66367659 </i>
    <i name="e_wo_entrp">    -16.65867710 </i>
    <i name="e_0_energy">    -16.66201009 </i>
   </energy>
  </scstep>
  <structure>
   <crystal>
    <varray name="basis" >
     <v>       3.67910736      -0.00000000      -0.00000000 </v>
     <v>      -0.00000000       3.67910736       0.00000000 </v>
     <v>       0.00000000      -0.00000000       3.67910736 </v>
    </varray>
    <i name="volume">     49.79977552 </i>
    <varray name="rec_basis" >
     <v>       0.27180506       0.00000000      -0.00000000 </v>
     <v>       0.00000000       0.27180506       0.00000000 </v>
     <v>       0.00000000      -0.00000000       0.27180506 </v>
    </varray>
   </crystal>
   <varray name="positions" >
    <v>      -0.00000000      -0.00000000      -0.00000000 </v>
    <v>       0.50000000       0.50000000      -0.00000000 </v>
    <v>       0.50000000       0.00000000       0.50000000 </v>
    <v>      -0.00000000       0.50000000       0.50000000 </v>
   </varray>
  </structure>
  <varray name="forces" >
   <v>      -0.00000000      -0.00000000      -0.00000000 </v>
   <v>      -0.00000000       0.00000000      -0.00000000 </v>
   <v>       0.00000000       0.00000000      -0.00000000 </v>
   <v>      -0.00000000      -0.00000000       0.00000000 </v>
  </varray>
  <varray name="stress" >
   <v>    -397.56822593      -0.00000000       0.00000000 </v>
   <v>       0.00000000    -397.56822593       0.00000000 </v>
   <v>      -0.00000000       0.00000000    -397.56822593 </v>
  </varray>
  <energy>
   <i name="e_fr_energy">    -16.66367659 </i>
   <i name="e_wo_entrp">    -16.66201009 </i>
   <i name="e_0_energy">     -0.00499949 </i>
  </energy>
  <time name="totalsc">    2.47    4.93</time>
 </calculation>
 <calculation>
  <scstep>
   <time name="total">    0.18    0.38</time>
   <energy>
    <i name="alphaZ">    650.05647172 </i>
    <i name="ewald">  -8931.64573808 </i>
    <i name="hartreedc">  -4212.88786118 </i>
    <i name="XCdc">    345.90414619 </i>
    <i name="pawpsdc">  10742.71005127 </i>
    <i name="pawaedc"> -11235.49464740 </i>
    <i name="eentropy">     -0.00265614 </i>
    <i name="bandstr">   -648.46968186 </i>
    <i name="atom">  13280.20280305 </i>
    <i name="e_fr_energy">     -9.62945580 </i>
    <i name="e_wo_entrp">     -9.62679965 </i>
    <i name="e_0_energy">     -9.62857041 </i>
   </energy>
  </scstep>
  <scstep>
   <time name="total">    0.18    0.33</time>
   <energy>
    <i name="e_fr_energy">    -16.43508696 </i>
    <i name="e_wo_entrp">    -16.43063435 </i>
    <i name="e_0_energy">    -16.43360275 </i>
   </energy>
  </scstep>
  <scstep>
   <time name="total">    0.18    0.38</time>
   <energy>
    <i name="e_fr_energy">    -16.93689291 </i>
    <i name="e_wo_entrp">    -16.93132613 </i>
    <i name="e_0_energy">    -16.93503732 </i>
   </energy>
  </scstep>
  <scstep>
   <time name="total">    0.18    0.38</time>
   <energy>
    <i name="e_fr_energy">    -17.01878467 </i>
    <i name="e_wo_entrp">    -17.01307060 </i>
    <i name="e_0_energy">    -17.01687998 </i>
   </energy>
  </scstep>
  <scstep>
   <time name="total">    0.18    0.33</time>
   <energy>
    <i name="e_fr_energy">    -17.06291942 </i>
    <i name="e_wo_entrp">    -17.05698038 </i>
    <i name="e_0_energy">    -17.06093974 </i>
   </energy>
  </scstep>
  <scstep>
   <time name="total">    0.18    0.38</time>
   <energy>
    <i name="e_fr_energy">    -17.07804859 </i>
    <i name="e_wo_entrp">    -17.07186001 </i>
    <i name="e_0_energy">    -17.07598573 </i>
   </energy>
  </scstep>
  <scstep>
   <time name="total">    0.18    0.33</time>
   <energy>
    <i name="e_fr_energy">    -17.08870159 </i>
    <i name="e_wo_entrp">    -17.08248363 </i>
    <i name="e_0_energy">    -17.08662894 </i>
   </energy>
  </scstep>
  <scstep>
   <time name="total">    0.18    0.38</time>
   <energy>
    <i name="e_fr_energy">    -17.09099905 </i>
    <i name="e_wo_entrp">    -17.08478737 </i>
    <i name="e_0_energy">    -17.08892849 </i>
   </energy>
  </scstep>
  <scstep>
   <time name="total">    0.18    0.38</time>
   <energy>
    <i name="e_fr_energy">    -17.09160789 </i>
    <i name="e_wo_entrp">    -17.08539957 </i>
    <i name="e_0_energy">    -17.08953845 </i>
   </energy>
  </scstep>
  <scstep>
   <time name="total">    0.18    0.33</time>
   <energy>
    <i name="e_fr_energy">    -17.09175925 </i>
    <i name="e_wo_entrp">    -17.08554417 </i>
    <i name="e_0_energy">    -17.08968756 </i>
   </energy>
  </scstep>
  <scstep>
   <time name="total">    0.18    0.38</time>
   <energy>
    <i name="e_fr_energy">    -17.09179429 </i>
    <i name="e_wo_entrp">    -17.08558232 </i>
    <i name="e_0_energy">    -17.08972363 </i>
   </energy>
  </scstep>
  <scstep>
   <time name="total">    0.18    0.33</time>
   <energy>
    <i name="e_fr_energy">    -17.09180739 </i>
    <i name="e_wo_entrp">    -17.08559795 </i>
    <i name="e_0_energy">    -17.08973758 </i>
   </energy>
  </scstep>
  <scstep>
   <time name="total">    0.20    0.40</time>
   <energy>
    <i name="alphaZ">    650.05647172 </i>
    <i name="ewald">  -8931.64573808 </i>
    <i name="hartreedc">  -3987.67990364 </i>
    <i name="XCdc">    337.20239164 </i>
    <i name="pawpsdc">  10459.41531896 </i>
    <i name="pawaedc"> -10898.21052594 </i>
    <i name="eentropy">     -0.00620937 </i>
    <i name="bandstr">   -926.42642102 </i>
    <i name="atom">  13280.20280305 </i>
    <i name="e_fr_energy">    -17.09181276 </i>
    <i name="e_wo_entrp">    -17.08560339 </i>
    <i name="e_0_energy">    -17.08974297 </i>
   </energy>
  </scstep>
  <structure>
   <crystal>
    <varray name="basis" >
     <v>       3.60084043      -0.00000000      -0.00000000 </v>
     <v>      -0.00000000       3.60084043       0.00000000 </v>
     <v>       0.00000000      -0.00000000       3.60084043 </v>
    </varray>
    <i name="volume">     46.68868358 </i>
    <varray name="rec_basis" >
     <v>       0.27771294       0.00000000      -0.00000000 </v>
     <v>       0.00000000       0.27771294       0.00000000 </v>
     <v>       0.00000000      -0.00000000       0.27771294 </v>
    </varray>
   </crystal>
   <varray name="positions" >
    <v>      -0.00000000      -0.00000000      -0.00000000 </v>
    <v>       0.50000000       0.50000000      -0.00000000 </v>
    <v>       0.50000000       0.00000000       0.50000000 </v>
    <v>      -0.00000000       0.50000000       0.50000000 </v>
   </varray>
  </structure>
  <varray name="forces" >
   <v>      -0.00000000      -0.00000000      -0.00000000 </v>
   <v>      -0.00000000      -0.00000000       0.00000000 </v>
   <v>      -0.00000000       0.00000000       0.00000000 </v>
   <v>       0.00000000      -0.00000000      -0.00000000 </v>
  </varray>
  <varray name="stress" >
   <v>     -40.92381866       0.00000000      -0.00000000 </v>
   <v>       0.00000000     -40.92381866       0.00000000 </v>
   <v>       0.00000000       0.00000000     -40.92381866 </v>
  </varray>
  <energy>
   <i name="e_fr_energy">    -17.09181276 </i>
   <i name="e_wo_entrp">    -17.08974297 </i>
   <i name="e_0_energy">     -0.00620937 </i>
  </energy>
  <time name="totalsc">    2.87    5.78</time>
 </calculation>
 <calculation>
  <scstep>
   <time name="total">    0.18    0.33</time>
   <energy>
    <i name="alphaZ">    654.54088138 </i>
    <i name="ewald">  -8952.13698736 </i>
    <i name="hartreedc">  -4000.10580960 </i>
    <i name="XCdc">    338.23358951 </i>
    <i name="pawpsdc">  10493.55113845 </i>
    <i name="pawaedc"> -10938.39926052 </i>
    <i name="eentropy">     -0.00602001 </i>
    <i name="bandstr">   -892.88881579 </i>
    <i name="atom">  13280.20280305 </i>
    <i name="e_fr_energy">    -17.00867024 </i>
    <i name="e_wo_entrp">    -17.00265023 </i>
    <i name="e_0_energy">    -17.00666357 </i>
   </energy>
  </scstep>
  <scstep>
   <time name="total">    0.18    0.38</time>
   <energy>
    <i name="e_fr_energy">    -17.08878876 </i>
    <i name="e_wo_entrp">    -17.08269051 </i>
    <i name="e_0_energy">    -17.08675601 </i>
   </energy>
  </scstep>
  <scstep>
   <time name="total">    0.18    0.38</time>
   <energy>
    <i name="e_fr_energy">    -17.09448405 </i>
    <i name="e_wo_entrp">    -17.08833869 </i>
    <i name="e_0_energy">    -17.09243560 </i>
   </energy>
  </scstep>
  <scstep>
   <time name="total">    0.18    0.33</time>
   <energy>
    <i name="e_fr_energy">    -17.09541217 </i>
    <i name="e_wo_entrp">    -17.08925662 </i>
    <i name="e_0_energy">    -17.09336032 </i>
   </energy>
  </scstep>
  <scstep>
   <time name="total">    0.18    0.38</time>
   <energy>
    <i name="e_fr_energy">    -17.09593642 </i>
    <i name="e_wo_entrp">    -17.08976111 </i>
    <i name="e_0_energy">    -17.09387798 </i>
   </energy>
  </scstep>
  <scstep>
   <time name="total">    0.18    0.33</time>
   <energy>
    <i name="e_fr_energy">    -17.09611987 </i>
    <i name="e_wo_entrp">    -17.08993083 </i>
    <i name="e_0_energy">    -17.09405686 </i>
   </energy>
  </scstep>
  <scstep>
   <time name="total">    0.18    0.39</time>
   <energy>
    <i name="e_fr_energy">    -17.09622489 </i>
    <i name="e_wo_entrp">    -17.09003112 </i>
    <i name="e_0_energy">    -17.09416030 </i>
   </energy>
  </scstep>
  <scstep>
   <time name="total">    0.18    0.31</time>
   <energy>
    <i name="e_fr_energy">    -17.09624647 </i>
    <i name="e_wo_entrp">    -17.09005403 </i>
    <i name="e_0_energy">    -17.09418232 </i>
   </energy>
  </scstep>
  <scstep>
   <time name="total">    0.20    0.40</time>
   <energy>
    <i name="alphaZ">    654.54088138 </i>
    <i name="ewald">  -8952.13698736 </i>
    <i name="hartreedc">  -3975.74163041 </i>
    <i name="XCdc">    337.29588442 </i>
    <i name="pawpsdc">  10463.28702220 </i>
    <i name="pawaedc"> -10902.46855553 </i>
    <i name="eentropy">     -0.00619388 </i>
    <i name="bandstr">   -922.06947853 </i>
    <i name="atom">  13280.20280305 </i>
    <i name="e_fr_energy">    -17.09625323 </i>
    <i name="e_wo_entrp">    -17.09005936 </i>
    <i name="e_0_energy">    -17.09418861 </i>
   </energy>
  </scstep>
  <structure>
   <crystal>
    <varray name="basis" >
     <v>       3.59259818      -0.00000000      -0.00000000 </v>
     <v>      -0.00000000       3.59259818       0.00000000 </v>
     <v>       0.00000000      -0.00000000       3.59259818 </v>
    </varray>
    <i name="volume">     46.36880871 </i>
    <varray name="rec_basis" >
     <v>       0.27835008       0.00000000      -0.00000000 </v>
     <v>       0.00000000       0.27835008       0.00000000 </v>
     <v>       0.00000000      -0.00000000       0.27835008 </v>
    </varray>
   </crystal>
   <varray name="positions" >
    <v>      -0.00000000      -0.00000000      -0.00000000 </v>
    <v>       0.50000000       0.50000000      -0.00000000 </v>
    <v>       0.50000000       0.00000000       0.50000000 </v>
    <v>      -0.00000000       0.50000000       0.50000000 </v>
   </varray>
  </structure>
  <varray name="forces" >
   <v>      -0.00000000      -0.00000000      -0.00000000 </v>
   <v>       0.00000000       0.00000000      -0.00000000 </v>
   <v>      -0.00000000      -0.00000000       0.00000000 </v>
   <v>       0.00000000       0.00000000       0.00000000 </v>
  </varray>
  <varray name="stress" >
   <v>      -2.82705910      -0.00000000      -0.00000000 </v>
   <v>       0.00000000      -2.82705910       0.00000000 </v>
   <v>       0.00000000       0.00000000      -2.82705910 </v>
  </varray>
  <energy>
   <i name="e_fr_energy">    -17.09625323 </i>
   <i name="e_wo_entrp">    -17.09418861 </i>
   <i name="e_0_energy">     -0.00619388 </i>
  </energy>
  <time name="totalsc">    2.09    4.19</time>
  <eigenvalues>
   <array>
    <dimension dim="1">band</dimension>
    <dimension dim="2">kpoint</dimension>
    <dimension dim="3">spin</dimension>
    <field>eigene</field>
    <field>occ</field>
    <set>
     <set comment="spin 1">
      <set comment="kpoint 1">
       <r>  -61.8860    1.0000 </r>
       <r>  -61.8860    1.0000 </r>
       <r>  -61.8835    1.0000 </r>
       <r>  -61.8446    1.0000 </r>
       <r>  -61.8446    1.0000 </r>
       <r>  -61.8342    1.0000 </r>
       <r>  -61.8310    1.0000 </r>
       <r>  -61.8262    1.0000 </r>
       <r>  -61.8262    1.0000 </r>
       <r>   -2.2735    1.0000 </r>
       <r>    0.8920    1.0000 </r>
       <r>    0.8920    1.0000 </r>
       <r>    1.8071    1.0000 </r>
       <r>    1.8071    1.0000 </r>
       <r>    1.8478    1.0000 </r>
       <r>    2.9307    1.0000 </r>
       <r>    4.5142    1.0000 </r>
       <r>    4.6542    1.0000 </r>
       <r>    4.6542    1.0000 </r>
       <r>    5.6299    1.0000 </r>
       <r>    5.6299    1.0000 </r>
       <r>    6.1689    1.0000 </r>
       <r>    6.1689    1.0000 </r>
       <r>    6.1693    1.0000 </r>
       <r>    6.2541    1.0000 </r>
       <r>    6.3170    1.0000 </r>
       <r>    6.3170    1.0000 </r>
       <r>    6.4927    1.0000 </r>
       <r>    6.6399    1.0000 </r>
       <r>    6.6399    1.0000 </r>
       <r>    9.4561   -0.0000 </r>
       <r>    9.4561   -0.0000 </r>
       <r>    9.4659   -0.0000 </r>
       <r>   16.0372    0.0000 </r>
       <r>   17.4142    0.0000 </r>
       <r>   17.4142    0.0000 </r>
       <r>   19.4568    0.0000 </r>
      </set>
      <set comment="kpoint 2">
       <r>  -61.8866    1.0000 </r>
       <r>  -61.8826    1.0000 </r>
       <r>  -61.8807    1.0000 </r>
       <r>  -61.8655    1.0000 </r>
       <r>  -61.8511    1.0000 </r>
       <r>  -61.8477    1.0000 </r>
       <r>  -61.8351    1.0000 </r>
       <r>  -61.8326    1.0000 </r>
       <r>  -61.8261    1.0000 </r>
       <r>   -1.5707    1.0000 </r>
       <r>    1.1444    1.0000 </r>
       <r>    1.2157    1.0000 </r>
       <r>    1.9416    1.0000 </r>
       <r>    1.9722    1.0000 </r>
       <r>    2.0562    1.0000 </r>
       <r>    3.1028    1.0000 </r>
       <r>    4.3228    1.0000 </r>
       <r>    4.7518    1.0000 </r>
       <r>    4.7666    1.0000 </r>
       <r>    5.1983    1.0000 </r>
       <r>    5.2831    1.0000 </r>
       <r>    5.4088    1.0000 </r>
       <r>    5.6297    1.0000 </r>
       <r>    5.7479    1.0000 </r>
       <r>    6.0111    1.0000 </r>
       <r>    6.0260    1.0000 </r>
       <r>    6.0305    1.0000 </r>
       <r>    6.4162    1.0000 </r>
       <r>    6.4828    1.0000 </r>
       <r>    6.6358    1.0000 </r>
       <r>    7.3233    1.0000 </r>
       <r>   10.9580   -0.0000 </r>
       <r>   11.0601   -0.0000 </r>
       <r>   16.8095    0.0000 </r>
       <r>   16.8770    0.0000 </r>
       <r>   17.3627    0.0000 </r>
       <r>   18.0184    0.0000 </r>
      </set>
      <set comment="kpoint 3">
       <r>  -61.8786    1.0000 </r>
       <r>  -61.8769    1.0000 </r>
       <r>  -61.8544    1.0000 </r>
       <r>  -61.8533    1.0000 </r>
       <r>  -61.8474    1.0000 </r>
       <r>  -61.8384    1.0000 </r>
       <r>  -61.8330    1.0000 </r>
       <r>  -61.8272    1.0000 </r>
       <r>  -61.8253    1.0000 </r>
       <r>   -0.4230    1.0000 </r>
       <r>    1.2177    1.0000 </r>
       <r>    1.4546    1.0000 </r>
       <r>    2.1276    1.0000 </r>
       <r>    2.1644    1.0000 </r>
       <r>    2.3809    1.0000 </r>
       <r>    3.4342    1.0000 </r>
       <r>    4.1062    1.0000 </r>
       <r>    4.2223    1.0000 </r>
       <r>    4.4459    1.0000 </r>
       <r>    4.4560    1.0000 </r>
       <r>    5.0207    1.0000 </r>
       <r>    5.1760    1.0000 </r>
       <r>    5.4319    1.0000 </r>
       <r>    5.5938    1.0000 </r>
       <r>    5.6598    1.0000 </r>
       <r>    5.7098    1.0000 </r>
       <r>    5.9653    1.0000 </r>
       <r>    6.0294    1.0000 </r>
       <r>    6.2045    1.0000 </r>
       <r>    6.4589    1.0000 </r>
       <r>    6.6278    1.0000 </r>
       <r>   12.8536   -0.0000 </r>
       <r>   13.0430   -0.0000 </r>
       <r>   14.9329    0.0000 </r>
       <r>   15.2092    0.0000 </r>
       <r>   17.6285    0.0000 </r>
       <r>   17.6713    0.0000 </r>
      </set>
      <set comment="kpoint 4">
       <r>  -61.8827    1.0000 </r>
       <r>  -61.8750    1.0000 </r>
       <r>  -61.8682    1.0000 </r>
       <r>  -61.8595    1.0000 </r>
       <r>  -61.8477    1.0000 </r>
       <r>  -61.8462    1.0000 </r>
       <r>  -61.8347    1.0000 </r>
       <r>  -61.8274    1.0000 </r>
       <r>  -61.8192    1.0000 </r>
       <r>   -0.9116    1.0000 </r>
       <r>    1.3277    1.0000 </r>
       <r>    1.5644    1.0000 </r>
       <r>    2.0336    1.0000 </r>
       <r>    2.0587    1.0000 </r>
       <r>    2.2421    1.0000 </r>
       <r>    3.2187    1.0000 </r>
       <r>    4.1618    1.0000 </r>
       <r>    4.5554    1.0000 </r>
       <r>    4.8821    1.0000 </r>
       <r>    4.8891    1.0000 </r>
       <r>    4.9544    1.0000 </r>
       <r>    4.9558    1.0000 </r>
       <r>    5.3551    1.0000 </r>
       <r>    5.7657    1.0000 </r>
       <r>    5.8029    1.0000 </r>
       <r>    5.8622    1.0000 </r>
       <r>    5.8916    1.0000 </r>
       <r>    6.3237    1.0000 </r>
       <r>    6.3799    1.0000 </r>
       <r>    6.4011    1.0000 </r>
       <r>    8.4599   -0.0348 </r>
       <r>    8.7512   -0.0007 </r>
       <r>   12.1610   -0.0000 </r>
       <r>   14.4568    0.0000 </r>
       <r>   17.4366    0.0000 </r>
       <r>   18.2448    0.0000 </r>
       <r>   18.2892    0.0000 </r>
      </set>
      <set comment="kpoint 5">
       <r>  -61.8827    1.0000 </r>
       <r>  -61.8772    1.0000 </r>
       <r>  -61.8620    1.0000 </r>
       <r>  -61.8553    1.0000 </r>
       <r>  -61.8468    1.0000 </r>
       <r>  -61.8384    1.0000 </r>
       <r>  -61.8334    1.0000 </r>
       <r>  -61.8290    1.0000 </r>
       <r>  -61.8154    1.0000 </r>
       <r>    0.1665    1.0000 </r>
       <r>    1.2417    1.0000 </r>
       <r>    1.8267    1.0000 </r>
       <r>    2.0714    1.0000 </r>
       <r>    2.2438    1.0000 </r>
       <r>    2.6519    1.0000 </r>
       <r>    3.3733    1.0000 </r>
       <r>    4.0501    1.0000 </r>
       <r>    4.2275    1.0000 </r>
       <r>    4.2854    1.0000 </r>
       <r>    4.5101    1.0000 </r>
       <r>    4.7525    1.0000 </r>
       <r>    5.0908    1.0000 </r>
       <r>    5.3078    1.0000 </r>
       <r>    5.5073    1.0000 </r>
       <r>    5.6153    1.0000 </r>
       <r>    5.6288    1.0000 </r>
       <r>    5.9968    1.0000 </r>
       <r>    6.2387    1.0000 </r>
       <r>    6.2618    1.0000 </r>
       <r>    6.2811    1.0000 </r>
       <r>    6.9221    1.0000 </r>
       <r>   10.1310   -0.0000 </r>
       <r>   11.9622   -0.0000 </r>
       <r>   14.0457    0.0000 </r>
       <r>   15.9576    0.0000 </r>
       <r>   18.1481    0.0000 </r>
       <r>   19.4807    0.0000 </r>
      </set>
      <set comment="kpoint 6">
       <r>  -61.8792    1.0000 </r>
       <r>  -61.8766    1.0000 </r>
       <r>  -61.8640    1.0000 </r>
       <r>  -61.8607    1.0000 </r>
       <r>  -61.8527    1.0000 </r>
       <r>  -61.8492    1.0000 </r>
       <r>  -61.8328    1.0000 </r>
       <r>  -61.8307    1.0000 </r>
       <r>  -61.8174    1.0000 </r>
       <r>    0.8381    1.0000 </r>
       <r>    1.3011    1.0000 </r>
       <r>    2.0266    1.0000 </r>
       <r>    2.1393    1.0000 </r>
       <r>    2.6612    1.0000 </r>
       <r>    2.9473    1.0000 </r>
       <r>    3.3621    1.0000 </r>
       <r>    3.9374    1.0000 </r>
       <r>    4.2559    1.0000 </r>
       <r>    4.3086    1.0000 </r>
       <r>    4.4646    1.0000 </r>
       <r>    4.6291    1.0000 </r>
       <r>    4.7095    1.0000 </r>
       <r>    5.2430    1.0000 </r>
       <r>    5.3584    1.0000 </r>
       <r>    5.4150    1.0000 </r>
       <r>    5.5849    1.0000 </r>
       <r>    5.8594    1.0000 </r>
       <r>    5.8871    1.0000 </r>
       <r>    6.0075    1.0000 </r>
       <r>    6.8782    1.0000 </r>
       <r>    7.7598    1.0023 </r>
       <r>    8.2768    0.2978 </r>
       <r>    9.7301   -0.0000 </r>
       <r>   15.5180    0.0000 </r>
       <r>   17.2582    0.0000 </r>
       <r>   17.5811    0.0000 </r>
       <r>   18.7621    0.0000 </r>
      </set>
      <set comment="kpoint 7">
       <r>  -61.8945    1.0000 </r>
       <r>  -61.8765    1.0000 </r>
       <r>  -61.8765    1.0000 </r>
       <r>  -61.8515    1.0000 </r>
       <r>  -61.8475    1.0000 </r>
       <r>  -61.8475    1.0000 </r>
       <r>  -61.8396    1.0000 </r>
       <r>  -61.8242    1.0000 </r>
       <r>  -61.8242    1.0000 </r>
       <r>   -0.3511    1.0000 </r>
       <r>    1.5061    1.0000 </r>
       <r>    1.5061    1.0000 </r>
       <r>    2.2023    1.0000 </r>
       <r>    2.2023    1.0000 </r>
       <r>    2.4428    1.0000 </r>
       <r>    3.1958    1.0000 </r>
       <r>    4.0664    1.0000 </r>
       <r>    4.6745    1.0000 </r>
       <r>    4.7495    1.0000 </r>
       <r>    4.7495    1.0000 </r>
       <r>    4.8440    1.0000 </r>
       <r>    4.8440    1.0000 </r>
       <r>    5.3173    1.0000 </r>
       <r>    5.3173    1.0000 </r>
       <r>    5.5415    1.0000 </r>
       <r>    5.7904    1.0000 </r>
       <r>    5.7904    1.0000 </r>
       <r>    6.4148    1.0000 </r>
       <r>    6.5239    1.0000 </r>
       <r>    6.5239    1.0000 </r>
       <r>    9.3454   -0.0000 </r>
       <r>    9.3454   -0.0000 </r>
       <r>    9.3910   -0.0000 </r>
       <r>   14.8916    0.0000 </r>
       <r>   15.6010    0.0000 </r>
       <r>   15.6010    0.0000 </r>
       <r>   21.1561    0.0000 </r>
      </set>
      <set comment="kpoint 8">
       <r>  -61.8982    1.0000 </r>
       <r>  -61.8868    1.0000 </r>
       <r>  -61.8696    1.0000 </r>
       <r>  -61.8548    1.0000 </r>
       <r>  -61.8462    1.0000 </r>
       <r>  -61.8376    1.0000 </r>
       <r>  -61.8363    1.0000 </r>
       <r>  -61.8203    1.0000 </r>
       <r>  -61.8200    1.0000 </r>
       <r>    0.5224    1.0000 </r>
       <r>    1.2745    1.0000 </r>
       <r>    1.4951    1.0000 </r>
       <r>    2.2435    1.0000 </r>
       <r>    2.2694    1.0000 </r>
       <r>    3.0032    1.0000 </r>
       <r>    3.4219    1.0000 </r>
       <r>    4.1689    1.0000 </r>
       <r>    4.3320    1.0000 </r>
       <r>    4.5006    1.0000 </r>
       <r>    4.7497    1.0000 </r>
       <r>    4.8232    1.0000 </r>
       <r>    4.8660    1.0000 </r>
       <r>    5.0799    1.0000 </r>
       <r>    5.1245    1.0000 </r>
       <r>    5.3558    1.0000 </r>
       <r>    5.9878    1.0000 </r>
       <r>    6.1349    1.0000 </r>
       <r>    6.3355    1.0000 </r>
       <r>    6.4063    1.0000 </r>
       <r>    6.4138    1.0000 </r>
       <r>    7.1055    1.0000 </r>
       <r>   10.2688   -0.0000 </r>
       <r>   10.4550   -0.0000 </r>
       <r>   12.9196   -0.0000 </r>
       <r>   13.7128   -0.0000 </r>
       <r>   16.9345    0.0000 </r>
       <r>   18.9036    0.0000 </r>
      </set>
      <set comment="kpoint 9">
       <r>  -61.8995    1.0000 </r>
       <r>  -61.8890    1.0000 </r>
       <r>  -61.8776    1.0000 </r>
       <r>  -61.8621    1.0000 </r>
       <r>  -61.8411    1.0000 </r>
       <r>  -61.8350    1.0000 </r>
       <r>  -61.8291    1.0000 </r>
       <r>  -61.8207    1.0000 </r>
       <r>  -61.8125    1.0000 </r>
       <r>    0.8384    1.0000 </r>
       <r>    1.1961    1.0000 </r>
       <r>    1.3239    1.0000 </r>
       <r>    2.0693    1.0000 </r>
       <r>    2.7103    1.0000 </r>
       <r>    3.1992    1.0000 </r>
       <r>    3.9855    1.0000 </r>
       <r>    4.4435    1.0000 </r>
       <r>    4.5040    1.0000 </r>
       <r>    4.6639    1.0000 </r>
       <r>    4.7141    1.0000 </r>
       <r>    4.8083    1.0000 </r>
       <r>    4.9302    1.0000 </r>
       <r>    5.0056    1.0000 </r>
       <r>    5.0155    1.0000 </r>
       <r>    5.1167    1.0000 </r>
       <r>    5.9916    1.0000 </r>
       <r>    6.2523    1.0000 </r>
       <r>    6.2967    1.0000 </r>
       <r>    6.2975    1.0000 </r>
       <r>    6.6590    1.0000 </r>
       <r>    7.7588    1.0023 </r>
       <r>    8.1712    0.7283 </r>
       <r>    9.3363   -0.0000 </r>
       <r>   13.0358   -0.0000 </r>
       <r>   14.3887    0.0000 </r>
       <r>   14.9863    0.0000 </r>
       <r>   16.5484    0.0000 </r>
      </set>
      <set comment="kpoint 10">
       <r>  -61.9109    1.0000 </r>
       <r>  -61.8925    1.0000 </r>
       <r>  -61.8925    1.0000 </r>
       <r>  -61.8915    1.0000 </r>
       <r>  -61.8289    1.0000 </r>
       <r>  -61.8289    1.0000 </r>
       <r>  -61.8264    1.0000 </r>
       <r>  -61.8142    1.0000 </r>
       <r>  -61.8142    1.0000 </r>
       <r>    0.8194    1.0000 </r>
       <r>    0.9257    1.0000 </r>
       <r>    0.9257    1.0000 </r>
       <r>    2.1046    1.0000 </r>
       <r>    3.0896    1.0000 </r>
       <r>    3.0896    1.0000 </r>
       <r>    4.3886    1.0000 </r>
       <r>    4.6003    1.0000 </r>
       <r>    4.6003    1.0000 </r>
       <r>    4.7935    1.0000 </r>
       <r>    4.7935    1.0000 </r>
       <r>    4.9147    1.0000 </r>
       <r>    5.4055    1.0000 </r>
       <r>    5.5188    1.0000 </r>
       <r>    5.5188    1.0000 </r>
       <r>    5.7340    1.0000 </r>
       <r>    6.3137    1.0000 </r>
       <r>    6.3137    1.0000 </r>
       <r>    6.3758    1.0000 </r>
       <r>    6.4777    1.0000 </r>
       <r>    6.4777    1.0000 </r>
       <r>    7.7667    1.0026 </r>
       <r>    7.7667    1.0026 </r>
       <r>    7.8341    1.0088 </r>
       <r>   11.9252   -0.0000 </r>
       <r>   13.3870   -0.0000 </r>
       <r>   13.3870   -0.0000 </r>
       <r>   14.4406    0.0000 </r>
      </set>
     </set>
    </set>
   </array>
  </eigenvalues>
  <separator name="orbital magnetization" >
   <v name="MAGDIPOLOUT">      0.00000000      0.00000000      0.00000000</v>
  </separator>
  <dos>
   <i name="efermi">      8.22748634 </i>
   <total>
    <array>
     <dimension dim="1">gridpoints</dimension>
     <dimension dim="2">spin</dimension>
     <field>energy</field>
     <field>total</field>
     <field>integrated</field>
     <set>
      <set comment="spin 1">
       <r>   -66.0642     0.0000     0.0000 </r>
       <r>   -65.7597     0.0000     0.0000 </r>
       <r>   -65.4551     0.0000     0.0000 </r>
       <r>   -65.1505     0.0000     0.0000 </r>
       <r>   -64.8459     0.0000     0.0000 </r>
       <r>   -64.5413     0.0000     0.0000 </r>
       <r>   -64.2368     0.0000     0.0000 </r>
       <r>   -63.9322     0.0000     0.0000 </r>
       <r>   -63.6276    -0.0000    -0.0000 </r>
       <r>   -63.3230    -0.0000    -0.0000 </r>
       <r>   -63.0184    -0.0000    -0.0000 </r>
       <r>   -62.7139    -0.0000    -0.0000 </r>
       <r>   -62.4093    -0.0202    -0.0061 </r>
       <r>   -62.1047    -1.9469    -0.5991 </r>
       <r>   -61.8001    43.6093    12.6833 </r>
       <r>   -61.4956    18.3790    18.2812 </r>
       <r>   -61.1910    -0.9221    18.0004 </r>
       <r>   -60.8864    -0.0012    18.0000 </r>
       <r>   -60.5818    -0.0000    18.0000 </r>
       <r>   -60.2772     0.0000    18.0000 </r>
       <r>   -59.9727     0.0000    18.0000 </r>
       <r>   -59.6681     0.0000    18.0000 </r>
       <r>   -59.3635     0.0000    18.0000 </r>
       <r>   -59.0589     0.0000    18.0000 </r>
       <r>   -58.7543     0.0000    18.0000 </r>
       <r>   -58.4498     0.0000    18.0000 </r>
       <r>   -58.1452     0.0000    18.0000 </r>
       <r>   -57.8406     0.0000    18.0000 </r>
       <r>   -57.5360     0.0000    18.0000 </r>
       <r>   -57.2314     0.0000    18.0000 </r>
       <r>   -56.9269     0.0000    18.0000 </r>
       <r>   -56.6223     0.0000    18.0000 </r>
       <r>   -56.3177     0.0000    18.0000 </r>
       <r>   -56.0131     0.0000    18.0000 </r>
       <r>   -55.7086     0.0000    18.0000 </r>
       <r>   -55.4040     0.0000    18.0000 </r>
       <r>   -55.0994     0.0000    18.0000 </r>
       <r>   -54.7948     0.0000    18.0000 </r>
       <r>   -54.4902     0.0000    18.0000 </r>
       <r>   -54.1857     0.0000    18.0000 </r>
       <r>   -53.8811     0.0000    18.0000 </r>
       <r>   -53.5765     0.0000    18.0000 </r>
       <r>   -53.2719     0.0000    18.0000 </r>
       <r>   -52.9673     0.0000    18.0000 </r>
       <r>   -52.6628     0.0000    18.0000 </r>
       <r>   -52.3582     0.0000    18.0000 </r>
       <r>   -52.0536     0.0000    18.0000 </r>
       <r>   -51.7490     0.0000    18.0000 </r>
       <r>   -51.4444     0.0000    18.0000 </r>
       <r>   -51.1399     0.0000    18.0000 </r>
       <r>   -50.8353     0.0000    18.0000 </r>
       <r>   -50.5307     0.0000    18.0000 </r>
       <r>   -50.2261     0.0000    18.0000 </r>
       <r>   -49.9216     0.0000    18.0000 </r>
       <r>   -49.6170     0.0000    18.0000 </r>
       <r>   -49.3124     0.0000    18.0000 </r>
       <r>   -49.0078     0.0000    18.0000 </r>
       <r>   -48.7032     0.0000    18.0000 </r>
       <r>   -48.3987     0.0000    18.0000 </r>
       <r>   -48.0941     0.0000    18.0000 </r>
       <r>   -47.7895     0.0000    18.0000 </r>
       <r>   -47.4849     0.0000    18.0000 </r>
       <r>   -47.1803     0.0000    18.0000 </r>
       <r>   -46.8758     0.0000    18.0000 </r>
       <r>   -46.5712     0.0000    18.0000 </r>
       <r>   -46.2666     0.0000    18.0000 </r>
       <r>   -45.9620     0.0000    18.0000 </r>
       <r>   -45.6575     0.0000    18.0000 </r>
       <r>   -45.3529     0.0000    18.0000 </r>
       <r>   -45.0483     0.0000    18.0000 </r>
       <r>   -44.7437     0.0000    18.0000 </r>
       <r>   -44.4391     0.0000    18.0000 </r>
       <r>   -44.1346     0.0000    18.0000 </r>
       <r>   -43.8300     0.0000    18.0000 </r>
       <r>   -43.5254     0.0000    18.0000 </r>
       <r>   -43.2208     0.0000    18.0000 </r>
       <r>   -42.9162     0.0000    18.0000 </r>
       <r>   -42.6117     0.0000    18.0000 </r>
       <r>   -42.3071     0.0000    18.0000 </r>
       <r>   -42.0025     0.0000    18.0000 </r>
       <r>   -41.6979     0.0000    18.0000 </r>
       <r>   -41.3933     0.0000    18.0000 </r>
       <r>   -41.0888     0.0000    18.0000 </r>
       <r>   -40.7842     0.0000    18.0000 </r>
       <r>   -40.4796     0.0000    18.0000 </r>
       <r>   -40.1750     0.0000    18.0000 </r>
       <r>   -39.8705     0.0000    18.0000 </r>
       <r>   -39.5659     0.0000    18.0000 </r>
       <r>   -39.2613     0.0000    18.0000 </r>
       <r>   -38.9567     0.0000    18.0000 </r>
       <r>   -38.6521     0.0000    18.0000 </r>
       <r>   -38.3476     0.0000    18.0000 </r>
       <r>   -38.0430     0.0000    18.0000 </r>
       <r>   -37.7384     0.0000    18.0000 </r>
       <r>   -37.4338     0.0000    18.0000 </r>
       <r>   -37.1292     0.0000    18.0000 </r>
       <r>   -36.8247     0.0000    18.0000 </r>
       <r>   -36.5201     0.0000    18.0000 </r>
       <r>   -36.2155     0.0000    18.0000 </r>
       <r>   -35.9109     0.0000    18.0000 </r>
       <r>   -35.6064     0.0000    18.0000 </r>
       <r>   -35.3018     0.0000    18.0000 </r>
       <r>   -34.9972     0.0000    18.0000 </r>
       <r>   -34.6926     0.0000    18.0000 </r>
       <r>   -34.3880     0.0000    18.0000 </r>
       <r>   -34.0835     0.0000    18.0000 </r>
       <r>   -33.7789     0.0000    18.0000 </r>
       <r>   -33.4743     0.0000    18.0000 </r>
       <r>   -33.1697     0.0000    18.0000 </r>
       <r>   -32.8651     0.0000    18.0000 </r>
       <r>   -32.5606     0.0000    18.0000 </r>
       <r>   -32.2560     0.0000    18.0000 </r>
       <r>   -31.9514     0.0000    18.0000 </r>
       <r>   -31.6468     0.0000    18.0000 </r>
       <r>   -31.3422     0.0000    18.0000 </r>
       <r>   -31.0377     0.0000    18.0000 </r>
       <r>   -30.7331     0.0000    18.0000 </r>
       <r>   -30.4285     0.0000    18.0000 </r>
       <r>   -30.1239     0.0000    18.0000 </r>
       <r>   -29.8194     0.0000    18.0000 </r>
       <r>   -29.5148     0.0000    18.0000 </r>
       <r>   -29.2102     0.0000    18.0000 </r>
       <r>   -28.9056     0.0000    18.0000 </r>
       <r>   -28.6010     0.0000    18.0000 </r>
       <r>   -28.2965     0.0000    18.0000 </r>
       <r>   -27.9919     0.0000    18.0000 </r>
       <r>   -27.6873     0.0000    18.0000 </r>
       <r>   -27.3827     0.0000    18.0000 </r>
       <r>   -27.0781     0.0000    18.0000 </r>
       <r>   -26.7736     0.0000    18.0000 </r>
       <r>   -26.4690     0.0000    18.0000 </r>
       <r>   -26.1644     0.0000    18.0000 </r>
       <r>   -25.8598     0.0000    18.0000 </r>
       <r>   -25.5553     0.0000    18.0000 </r>
       <r>   -25.2507     0.0000    18.0000 </r>
       <r>   -24.9461     0.0000    18.0000 </r>
       <r>   -24.6415     0.0000    18.0000 </r>
       <r>   -24.3369     0.0000    18.0000 </r>
       <r>   -24.0324     0.0000    18.0000 </r>
       <r>   -23.7278     0.0000    18.0000 </r>
       <r>   -23.4232     0.0000    18.0000 </r>
       <r>   -23.1186     0.0000    18.0000 </r>
       <r>   -22.8140     0.0000    18.0000 </r>
       <r>   -22.5095     0.0000    18.0000 </r>
       <r>   -22.2049     0.0000    18.0000 </r>
       <r>   -21.9003     0.0000    18.0000 </r>
       <r>   -21.5957     0.0000    18.0000 </r>
       <r>   -21.2911     0.0000    18.0000 </r>
       <r>   -20.9866     0.0000    18.0000 </r>
       <r>   -20.6820     0.0000    18.0000 </r>
       <r>   -20.3774     0.0000    18.0000 </r>
       <r>   -20.0728     0.0000    18.0000 </r>
       <r>   -19.7683     0.0000    18.0000 </r>
       <r>   -19.4637     0.0000    18.0000 </r>
       <r>   -19.1591     0.0000    18.0000 </r>
       <r>   -18.8545     0.0000    18.0000 </r>
       <r>   -18.5499     0.0000    18.0000 </r>
       <r>   -18.2454     0.0000    18.0000 </r>
       <r>   -17.9408     0.0000    18.0000 </r>
       <r>   -17.6362     0.0000    18.0000 </r>
       <r>   -17.3316     0.0000    18.0000 </r>
       <r>   -17.0270     0.0000    18.0000 </r>
       <r>   -16.7225     0.0000    18.0000 </r>
       <r>   -16.4179     0.0000    18.0000 </r>
       <r>   -16.1133     0.0000    18.0000 </r>
       <r>   -15.8087     0.0000    18.0000 </r>
       <r>   -15.5041     0.0000    18.0000 </r>
       <r>   -15.1996     0.0000    18.0000 </r>
       <r>   -14.8950     0.0000    18.0000 </r>
       <r>   -14.5904     0.0000    18.0000 </r>
       <r>   -14.2858     0.0000    18.0000 </r>
       <r>   -13.9813     0.0000    18.0000 </r>
       <r>   -13.6767     0.0000    18.0000 </r>
       <r>   -13.3721     0.0000    18.0000 </r>
       <r>   -13.0675     0.0000    18.0000 </r>
       <r>   -12.7629     0.0000    18.0000 </r>
       <r>   -12.4584     0.0000    18.0000 </r>
       <r>   -12.1538     0.0000    18.0000 </r>
       <r>   -11.8492     0.0000    18.0000 </r>
       <r>   -11.5446     0.0000    18.0000 </r>
       <r>   -11.2400     0.0000    18.0000 </r>
       <r>   -10.9355     0.0000    18.0000 </r>
       <r>   -10.6309     0.0000    18.0000 </r>
       <r>   -10.3263     0.0000    18.0000 </r>
       <r>   -10.0217     0.0000    18.0000 </r>
       <r>    -9.7172     0.0000    18.0000 </r>
       <r>    -9.4126     0.0000    18.0000 </r>
       <r>    -9.1080     0.0000    18.0000 </r>
       <r>    -8.8034     0.0000    18.0000 </r>
       <r>    -8.4988     0.0000    18.0000 </r>
       <r>    -8.1943     0.0000    18.0000 </r>
       <r>    -7.8897     0.0000    18.0000 </r>
       <r>    -7.5851     0.0000    18.0000 </r>
       <r>    -7.2805     0.0000    18.0000 </r>
       <r>    -6.9759     0.0000    18.0000 </r>
       <r>    -6.6714     0.0000    18.0000 </r>
       <r>    -6.3668     0.0000    18.0000 </r>
       <r>    -6.0622     0.0000    18.0000 </r>
       <r>    -5.7576     0.0000    18.0000 </r>
       <r>    -5.4530     0.0000    18.0000 </r>
       <r>    -5.1485     0.0000    18.0000 </r>
       <r>    -4.8439     0.0000    18.0000 </r>
       <r>    -4.5393     0.0000    18.0000 </r>
       <r>    -4.2347     0.0000    18.0000 </r>
       <r>    -3.9302    -0.0000    18.0000 </r>
       <r>    -3.6256    -0.0000    18.0000 </r>
       <r>    -3.3210    -0.0000    18.0000 </r>
       <r>    -3.0164    -0.0000    18.0000 </r>
       <r>    -2.7118    -0.0010    17.9997 </r>
       <r>    -2.4073     0.0135    18.0038 </r>
       <r>    -2.1027     0.2309    18.0741 </r>
       <r>    -1.7981    -0.0247    18.0666 </r>
       <r>    -1.4935     0.6089    18.2521 </r>
       <r>    -1.1889     0.1293    18.2915 </r>
       <r>    -0.8844     0.4618    18.4321 </r>
       <r>    -0.5798     0.3005    18.5237 </r>
       <r>    -0.2752     0.8811    18.7920 </r>
       <r>     0.0294     0.1449    18.8361 </r>
       <r>     0.3339     1.3724    19.2542 </r>
       <r>     0.6385     0.6119    19.4405 </r>
       <r>     0.9431     2.1013    20.0805 </r>
       <r>     1.2477     4.2759    21.3829 </r>
       <r>     1.5523     5.6463    23.1026 </r>
       <r>     1.8568     2.1548    23.7589 </r>
       <r>     2.1614     9.0141    26.5044 </r>
       <r>     2.4660     5.8108    28.2743 </r>
       <r>     2.7706     2.5570    29.0531 </r>
       <r>     3.0752     2.4501    29.7993 </r>
       <r>     3.3797     4.2903    31.1061 </r>
       <r>     3.6843     1.9941    31.7134 </r>
       <r>     3.9889     1.1322    32.0583 </r>
       <r>     4.2935     7.8606    34.4525 </r>
       <r>     4.5981    10.1504    37.5440 </r>
       <r>     4.9026    12.2980    41.2898 </r>
       <r>     5.2072     9.8234    44.2817 </r>
       <r>     5.5118     9.7105    47.2393 </r>
       <r>     5.8164    10.5634    50.4567 </r>
       <r>     6.1209    10.5838    53.6803 </r>
       <r>     6.4255    14.0535    57.9607 </r>
       <r>     6.7301     6.4581    59.9277 </r>
       <r>     7.0347     2.4371    60.6700 </r>
       <r>     7.3393     1.1576    61.0226 </r>
       <r>     7.6438     0.4704    61.1659 </r>
       <r>     7.9484     1.9794    61.7687 </r>
       <r>     8.2530     0.8995    62.0427 </r>
       <r>     8.5576     1.2341    62.4186 </r>
       <r>     8.8622     0.7438    62.6451 </r>
       <r>     9.1667     0.0396    62.6572 </r>
       <r>     9.4713     1.7520    63.1908 </r>
       <r>     9.7759     0.9717    63.4868 </r>
       <r>    10.0805     0.6442    63.6830 </r>
       <r>    10.3850     1.9197    64.2677 </r>
       <r>    10.6896     0.5767    64.4433 </r>
       <r>    10.9942     0.6514    64.6418 </r>
       <r>    11.2988     0.8505    64.9008 </r>
       <r>    11.6034    -0.0659    64.8807 </r>
       <r>    11.9079     0.5129    65.0369 </r>
       <r>    12.2125     1.7933    65.5831 </r>
       <r>    12.5171     0.1435    65.6268 </r>
       <r>    12.8217     0.3291    65.7271 </r>
       <r>    13.1263     2.3808    66.4523 </r>
       <r>    13.4308     0.5398    66.6167 </r>
       <r>    13.7354     0.5695    66.7901 </r>
       <r>    14.0400     1.0159    67.0995 </r>
       <r>    14.3446     1.1461    67.4486 </r>
       <r>    14.6492     1.3260    67.8525 </r>
       <r>    14.9537     0.8500    68.1114 </r>
       <r>    15.2583     1.3710    68.5290 </r>
       <r>    15.5629     0.8732    68.7949 </r>
       <r>    15.8675     0.8107    69.0418 </r>
       <r>    16.1720     1.4685    69.4891 </r>
       <r>    16.4766     0.1128    69.5235 </r>
       <r>    16.7812     1.0112    69.8315 </r>
       <r>    17.0858     1.7484    70.3640 </r>
       <r>    17.3904     1.5206    70.8271 </r>
       <r>    17.6949     2.8692    71.7010 </r>
       <r>    17.9995     0.8213    71.9512 </r>
       <r>    18.3041     2.8105    72.8072 </r>
       <r>    18.6087     0.5351    72.9702 </r>
       <r>    18.9133     1.0841    73.3003 </r>
       <r>    19.2178     0.3127    73.3956 </r>
       <r>    19.5224     1.2051    73.7626 </r>
       <r>    19.8270     0.5643    73.9345 </r>
       <r>    20.1316    -0.0281    73.9259 </r>
       <r>    20.4361    -0.0000    73.9259 </r>
       <r>    20.7407    -0.0015    73.9255 </r>
       <r>    21.0453     0.0263    73.9335 </r>
       <r>    21.3499     0.2237    74.0016 </r>
       <r>    21.6545    -0.0050    74.0001 </r>
       <r>    21.9590    -0.0003    74.0000 </r>
       <r>    22.2636    -0.0000    74.0000 </r>
       <r>    22.5682    -0.0000    74.0000 </r>
       <r>    22.8728     0.0000    74.0000 </r>
       <r>    23.1774     0.0000    74.0000 </r>
       <r>    23.4819     0.0000    74.0000 </r>
       <r>    23.7865     0.0000    74.0000 </r>
       <r>    24.0911     0.0000    74.0000 </r>
       <r>    24.3957     0.0000    74.0000 </r>
       <r>    24.7003     0.0000    74.0000 </r>
       <r>    25.0048     0.0000    74.0000 </r>
       <r>    25.3094     0.0000    74.0000 </r>
      </set>
     </set>
    </array>
   </total>
  </dos>
 </calculation>
 <structure name="finalpos" >
  <crystal>
   <varray name="basis" >
    <v>       3.59259818      -0.00000000      -0.00000000 </v>
    <v>      -0.00000000       3.59259818       0.00000000 </v>
    <v>       0.00000000      -0.00000000       3.59259818 </v>
   </varray>
   <i name="volume">     46.36880871 </i>
   <varray name="rec_basis" >
    <v>       0.27835008       0.00000000      -0.00000000 </v>
    <v>       0.00000000       0.27835008       0.00000000 </v>
    <v>       0.00000000      -0.00000000       0.27835008 </v>
   </varray>
  </crystal>
  <varray name="positions" >
   <v>      -0.00000000      -0.00000000      -0.00000000 </v>
   <v>       0.50000000       0.50000000      -0.00000000 </v>
   <v>       0.50000000       0.00000000       0.50000000 </v>
   <v>      -0.00000000       0.50000000       0.50000000 </v>
  </varray>
 </structure>
</modeling>
