unknown system                          
           1
     3.800000    0.000000    0.000000
     0.000000    3.800000    0.000000
     0.000000    0.000000    3.800000
   Au   Cu
   1   3
Direct configuration=     1
   0.00000000  0.00000000  0.00000000
   0.50000000  0.50000000  0.00000000
   0.50000000  0.00000000  0.50000000
   0.00000000  0.50000000  0.50000000
unknown system                          
           1
     2.312768   -0.000000   -0.000000
    -0.000000    2.312768    0.000000
     0.000000   -0.000000    2.312768
   Au   Cu
   1   3
Direct configuration=     2
   0.00000000  0.00000000  0.00000000
   0.50000000  0.50000000  0.00000000
   0.50000000 -0.00000000  0.50000000
   0.00000000  0.50000000  0.50000000
unknown system                          
           1
     3.723100   -0.000000   -0.000000
    -0.000000    3.723100    0.000000
     0.000000   -0.000000    3.723100
   Au   Cu
   1   3
Direct configuration=     3
  -0.00000000 -0.00000000 -0.00000000
   0.50000000  0.50000000 -0.00000000
   0.50000000  0.00000000  0.50000000
  -0.00000000  0.50000000  0.50000000
unknown system                          
           1
     3.679107   -0.000000   -0.000000
    -0.000000    3.679107    0.000000
     0.000000   -0.000000    3.679107
   Au   Cu
   1   3
Direct configuration=     4
  -0.00000000 -0.00000000 -0.00000000
   0.50000000  0.50000000 -0.00000000
   0.50000000  0.00000000  0.50000000
  -0.00000000  0.50000000  0.50000000
unknown system                          
           1
     3.600840   -0.000000   -0.000000
    -0.000000    3.600840    0.000000
     0.000000   -0.000000    3.600840
   Au   Cu
   1   3
Direct configuration=     5
  -0.00000000 -0.00000000 -0.00000000
   0.50000000  0.50000000 -0.00000000
   0.50000000  0.00000000  0.50000000
  -0.00000000  0.50000000  0.50000000
unknown system                          
           1
     3.592598   -0.000000   -0.000000
    -0.000000    3.592598    0.000000
     0.000000   -0.000000    3.592598
   Au   Cu
   1   3
Direct configuration=     6
  -0.00000000 -0.00000000 -0.00000000
   0.50000000  0.50000000 -0.00000000
   0.50000000  0.00000000  0.50000000
  -0.00000000  0.50000000  0.50000000
