   8   8   0   0
  0.2001288E+02  0.5430000E-09  0.5430000E-09  0.5430000E-09  0.5000000E-15
  1.000000000000000E-004
  CAR 
 Si (diamond)                            
     12.62339061     -8.13041259  301      5.85246231      1.00000000
     -8.130  0.0000E+00  0.0000E+00
     -8.061  0.0000E+00  0.0000E+00
     -7.992  0.0000E+00  0.0000E+00
     -7.923  0.0000E+00  0.0000E+00
     -7.854  0.0000E+00  0.0000E+00
     -7.785  0.0000E+00  0.0000E+00
     -7.715  0.0000E+00  0.0000E+00
     -7.646  0.0000E+00  0.0000E+00
     -7.577  0.0000E+00  0.0000E+00
     -7.508  0.0000E+00  0.0000E+00
     -7.439  0.0000E+00  0.0000E+00
     -7.369  0.0000E+00  0.0000E+00
     -7.300  0.0000E+00  0.0000E+00
     -7.231  0.0000E+00  0.0000E+00
     -7.162  0.0000E+00  0.0000E+00
     -7.093  0.0000E+00  0.0000E+00
     -7.024  0.0000E+00  0.0000E+00
     -6.954  0.0000E+00  0.0000E+00
     -6.885  0.0000E+00  0.0000E+00
     -6.816  0.0000E+00  0.0000E+00
     -6.747  0.0000E+00  0.0000E+00
     -6.678  0.0000E+00  0.0000E+00
     -6.608  0.0000E+00  0.0000E+00
     -6.539  0.0000E+00  0.0000E+00
     -6.470  0.0000E+00  0.0000E+00
     -6.401  0.0000E+00  0.0000E+00
     -6.332  0.0000E+00  0.0000E+00
     -6.263  0.0000E+00  0.0000E+00
     -6.193  0.0000E+00  0.0000E+00
     -6.124  0.3675E-02  0.7596E-05
     -6.055  0.3527E+00  0.1164E-01
     -5.986  0.4676E+00  0.3896E-01
     -5.917  0.6287E+00  0.7796E-01
     -5.847  0.6988E+00  0.1232E+00
     -5.778  0.7997E+00  0.1751E+00
     -5.709  0.9071E+00  0.2343E+00
     -5.640  0.9625E+00  0.2988E+00
     -5.571  0.1028E+01  0.3677E+00
     -5.502  0.1105E+01  0.4414E+00
     -5.432  0.1193E+01  0.5208E+00
     -5.363  0.1245E+01  0.6054E+00
     -5.294  0.1301E+01  0.6934E+00
     -5.225  0.1360E+01  0.7854E+00
     -5.156  0.1427E+01  0.8817E+00
     -5.087  0.1494E+01  0.9827E+00
     -5.017  0.1563E+01  0.1089E+01
     -4.948  0.1614E+01  0.1198E+01
     -4.879  0.1668E+01  0.1312E+01
     -4.810  0.1726E+01  0.1429E+01
     -4.741  0.1788E+01  0.1551E+01
     -4.671  0.1857E+01  0.1677E+01
     -4.602  0.1932E+01  0.1808E+01
     -4.533  0.1999E+01  0.1944E+01
     -4.464  0.2060E+01  0.2084E+01
     -4.395  0.2237E+01  0.2231E+01
     -4.326  0.2356E+01  0.2390E+01
     -4.256  0.2418E+01  0.2555E+01
     -4.187  0.2597E+01  0.2730E+01
     -4.118  0.2602E+01  0.2911E+01
     -4.049  0.2526E+01  0.3088E+01
     -3.980  0.2479E+01  0.3261E+01
     -3.910  0.2527E+01  0.3434E+01
     -3.841  0.2922E+01  0.3622E+01
     -3.772  0.3656E+01  0.3850E+01
     -3.703  0.3830E+01  0.4112E+01
     -3.634  0.3227E+01  0.4350E+01
     -3.565  0.3481E+01  0.4581E+01
     -3.495  0.3635E+01  0.4837E+01
     -3.426  0.2923E+01  0.5052E+01
     -3.357  0.3072E+01  0.5254E+01
     -3.288  0.2827E+01  0.5460E+01
     -3.219  0.2966E+01  0.5658E+01
     -3.149  0.3327E+01  0.5878E+01
     -3.080  0.2652E+01  0.6080E+01
     -3.011  0.2427E+01  0.6255E+01
     -2.942  0.2320E+01  0.6419E+01
     -2.873  0.2212E+01  0.6576E+01
     -2.804  0.2116E+01  0.6725E+01
     -2.734  0.2064E+01  0.6870E+01
     -2.665  0.2522E+01  0.7031E+01
     -2.596  0.2257E+01  0.7213E+01
     -2.527  0.1940E+01  0.7358E+01
     -2.458  0.1684E+01  0.7483E+01
     -2.389  0.1468E+01  0.7592E+01
     -2.319  0.1265E+01  0.7686E+01
     -2.250  0.1071E+01  0.7767E+01
     -2.181  0.8964E+00  0.7835E+01
     -2.112  0.7369E+00  0.7891E+01
     -2.043  0.6845E+00  0.7939E+01
     -1.973  0.5115E+00  0.7986E+01
     -1.904  0.3172E+00  0.8011E+01
     -1.835  0.3253E+00  0.8032E+01
     -1.766  0.4680E+00  0.8059E+01
     -1.697  0.6130E+00  0.8097E+01
     -1.628  0.7591E+00  0.8144E+01
     -1.558  0.9067E+00  0.8202E+01
     -1.489  0.1073E+01  0.8270E+01
     -1.420  0.1265E+01  0.8351E+01
     -1.351  0.1499E+01  0.8446E+01
     -1.282  0.1841E+01  0.8561E+01
     -1.212  0.2413E+01  0.8707E+01
     -1.143  0.2470E+01  0.8936E+01
     -1.074  0.3290E+01  0.9120E+01
     -1.005  0.4508E+01  0.9384E+01
     -0.936  0.7520E+01  0.9784E+01
     -0.867  0.5427E+01  0.1024E+02
     -0.797  0.4466E+01  0.1058E+02
     -0.728  0.3808E+01  0.1087E+02
     -0.659  0.3429E+01  0.1111E+02
     -0.590  0.3264E+01  0.1134E+02
     -0.521  0.3020E+01  0.1156E+02
     -0.452  0.2741E+01  0.1176E+02
     -0.382  0.2673E+01  0.1195E+02
     -0.313  0.2327E+01  0.1212E+02
     -0.244  0.2254E+01  0.1228E+02
     -0.175  0.2156E+01  0.1243E+02
     -0.106  0.2036E+01  0.1258E+02
     -0.036  0.1901E+01  0.1271E+02
      0.033  0.1797E+01  0.1284E+02
      0.102  0.1736E+01  0.1296E+02
      0.171  0.1694E+01  0.1308E+02
      0.240  0.1659E+01  0.1320E+02
      0.309  0.1575E+01  0.1331E+02
      0.379  0.1549E+01  0.1342E+02
      0.448  0.1537E+01  0.1352E+02
      0.517  0.1514E+01  0.1363E+02
      0.586  0.1459E+01  0.1373E+02
      0.655  0.1381E+01  0.1383E+02
      0.725  0.1301E+01  0.1392E+02
      0.794  0.1241E+01  0.1401E+02
      0.863  0.1197E+01  0.1409E+02
      0.932  0.1166E+01  0.1418E+02
      1.001  0.1139E+01  0.1426E+02
      1.070  0.1118E+01  0.1433E+02
      1.140  0.1121E+01  0.1441E+02
      1.209  0.1151E+01  0.1449E+02
      1.278  0.1214E+01  0.1457E+02
      1.347  0.1296E+01  0.1466E+02
      1.416  0.1370E+01  0.1475E+02
      1.486  0.1921E+01  0.1486E+02
      1.555  0.2568E+01  0.1502E+02
      1.624  0.3106E+01  0.1522E+02
      1.693  0.3017E+01  0.1542E+02
      1.762  0.3677E+01  0.1565E+02
      1.831  0.4688E+01  0.1595E+02
      1.901  0.4700E+01  0.1628E+02
      1.970  0.4644E+01  0.1660E+02
      2.039  0.5171E+01  0.1692E+02
      2.108  0.4762E+01  0.1727E+02
      2.177  0.4122E+01  0.1758E+02
      2.246  0.3974E+01  0.1786E+02
      2.316  0.3852E+01  0.1813E+02
      2.385  0.3827E+01  0.1839E+02
      2.454  0.4070E+01  0.1866E+02
      2.523  0.4426E+01  0.1896E+02
      2.592  0.5000E+01  0.1928E+02
      2.662  0.5373E+01  0.1964E+02
      2.731  0.5210E+01  0.2002E+02
      2.800  0.4872E+01  0.2036E+02
      2.869  0.5434E+01  0.2072E+02
      2.938  0.4745E+01  0.2104E+02
      3.007  0.6404E+01  0.2144E+02
      3.077  0.6637E+01  0.2190E+02
      3.146  0.4844E+01  0.2230E+02
      3.215  0.4789E+01  0.2262E+02
      3.284  0.6783E+01  0.2300E+02
      3.353  0.6158E+01  0.2346E+02
      3.423  0.5647E+01  0.2384E+02
      3.492  0.5287E+01  0.2421E+02
      3.561  0.5478E+01  0.2458E+02
      3.630  0.6357E+01  0.2498E+02
      3.699  0.6749E+01  0.2546E+02
      3.768  0.5359E+01  0.2588E+02
      3.838  0.4409E+01  0.2622E+02
      3.907  0.4221E+01  0.2651E+02
      3.976  0.4286E+01  0.2681E+02
      4.045  0.4805E+01  0.2712E+02
      4.114  0.5379E+01  0.2747E+02
      4.184  0.5468E+01  0.2784E+02
      4.253  0.5231E+01  0.2821E+02
      4.322  0.4912E+01  0.2856E+02
      4.391  0.4842E+01  0.2890E+02
      4.460  0.4473E+01  0.2923E+02
      4.529  0.4405E+01  0.2953E+02
      4.599  0.6409E+01  0.2992E+02
      4.668  0.3446E+01  0.3022E+02
      4.737  0.3085E+01  0.3044E+02
      4.806  0.2856E+01  0.3065E+02
      4.875  0.2461E+01  0.3083E+02
      4.944  0.2231E+01  0.3099E+02
      5.014  0.2178E+01  0.3114E+02
      5.083  0.1787E+01  0.3128E+02
      5.152  0.1751E+01  0.3140E+02
      5.221  0.1511E+01  0.3151E+02
      5.290  0.1342E+01  0.3161E+02
      5.360  0.1236E+01  0.3170E+02
      5.429  0.9394E+00  0.3177E+02
      5.498  0.1091E+01  0.3184E+02
      5.567  0.8507E+00  0.3191E+02
      5.636  0.4634E+00  0.3195E+02
      5.705  0.3489E+00  0.3198E+02
      5.775  0.1117E+00  0.3200E+02
      5.844  0.0000E+00  0.3200E+02
      5.913  0.0000E+00  0.3200E+02
      5.982  0.0000E+00  0.3200E+02
      6.051  0.0000E+00  0.3200E+02
      6.121  0.0000E+00  0.3200E+02
      6.190  0.0000E+00  0.3200E+02
      6.259  0.0000E+00  0.3200E+02
      6.328  0.0000E+00  0.3200E+02
      6.397  0.0000E+00  0.3200E+02
      6.466  0.1400E+00  0.3200E+02
      6.536  0.3266E+00  0.3202E+02
      6.605  0.5238E+00  0.3205E+02
      6.674  0.1312E+01  0.3211E+02
      6.743  0.1313E+01  0.3220E+02
      6.812  0.1306E+01  0.3229E+02
      6.882  0.1339E+01  0.3238E+02
      6.951  0.1426E+01  0.3248E+02
      7.020  0.1652E+01  0.3258E+02
      7.089  0.1835E+01  0.3271E+02
      7.158  0.1959E+01  0.3283E+02
      7.227  0.2182E+01  0.3298E+02
      7.297  0.2721E+01  0.3316E+02
      7.366  0.2725E+01  0.3334E+02
      7.435  0.2842E+01  0.3353E+02
      7.504  0.3122E+01  0.3374E+02
      7.573  0.3532E+01  0.3397E+02
      7.642  0.3811E+01  0.3424E+02
      7.712  0.3940E+01  0.3450E+02
      7.781  0.4298E+01  0.3478E+02
      7.850  0.4621E+01  0.3509E+02
      7.919  0.4811E+01  0.3542E+02
      7.988  0.5962E+01  0.3579E+02
      8.058  0.6032E+01  0.3621E+02
      8.127  0.6149E+01  0.3664E+02
      8.196  0.6063E+01  0.3706E+02
      8.265  0.6811E+01  0.3749E+02
      8.334  0.5230E+01  0.3789E+02
      8.403  0.5007E+01  0.3825E+02
      8.473  0.4490E+01  0.3858E+02
      8.542  0.4376E+01  0.3888E+02
      8.611  0.3931E+01  0.3917E+02
      8.680  0.3723E+01  0.3943E+02
      8.749  0.3832E+01  0.3969E+02
      8.819  0.3583E+01  0.3995E+02
      8.888  0.3278E+01  0.4019E+02
      8.957  0.2859E+01  0.4040E+02
      9.026  0.1882E+01  0.4057E+02
      9.095  0.2756E+01  0.4071E+02
      9.164  0.7445E+01  0.4104E+02
      9.234  0.3277E+01  0.4140E+02
      9.303  0.1994E+01  0.4157E+02
      9.372  0.1608E+01  0.4169E+02
      9.441  0.1425E+01  0.4180E+02
      9.510  0.9325E+00  0.4187E+02
      9.579  0.5355E+00  0.4193E+02
      9.649  0.2842E+00  0.4195E+02
      9.718  0.1392E+00  0.4197E+02
      9.787  0.9485E-01  0.4197E+02
      9.856  0.7738E-01  0.4198E+02
      9.925  0.6230E-01  0.4199E+02
      9.995  0.4962E-01  0.4199E+02
     10.064  0.3933E-01  0.4199E+02
     10.133  0.3123E-01  0.4199E+02
     10.202  0.2405E-01  0.4200E+02
     10.271  0.1757E-01  0.4200E+02
     10.340  0.1178E-01  0.4200E+02
     10.410  0.6784E-02  0.4200E+02
     10.479  0.3103E-02  0.4200E+02
     10.548  0.8438E-03  0.4200E+02
     10.617  0.5710E-05  0.4200E+02
     10.686  0.0000E+00  0.4200E+02
     10.756  0.0000E+00  0.4200E+02
     10.825  0.0000E+00  0.4200E+02
     10.894  0.0000E+00  0.4200E+02
     10.963  0.0000E+00  0.4200E+02
     11.032  0.0000E+00  0.4200E+02
     11.101  0.0000E+00  0.4200E+02
     11.171  0.0000E+00  0.4200E+02
     11.240  0.0000E+00  0.4200E+02
     11.309  0.0000E+00  0.4200E+02
     11.378  0.0000E+00  0.4200E+02
     11.447  0.0000E+00  0.4200E+02
     11.517  0.0000E+00  0.4200E+02
     11.586  0.0000E+00  0.4200E+02
     11.655  0.0000E+00  0.4200E+02
     11.724  0.0000E+00  0.4200E+02
     11.793  0.0000E+00  0.4200E+02
     11.862  0.0000E+00  0.4200E+02
     11.932  0.0000E+00  0.4200E+02
     12.001  0.0000E+00  0.4200E+02
     12.070  0.0000E+00  0.4200E+02
     12.139  0.0000E+00  0.4200E+02
     12.208  0.0000E+00  0.4200E+02
     12.277  0.0000E+00  0.4200E+02
     12.347  0.0000E+00  0.4200E+02
     12.416  0.0000E+00  0.4200E+02
     12.485  0.0000E+00  0.4200E+02
     12.554  0.0000E+00  0.4200E+02
     12.623  0.0000E+00  0.4200E+02
