 vasp.5.4.4.18Apr17-6-g9f103f2a35 (build Oct  7 2025 21:22:07) complex          
  
 executed on             LinuxIFC date 2025.11.06  02:17:50
 running on    1 total cores
 distrk:  each k-point on    1 cores,    1 groups
 distr:  one band on NCORES_PER_BAND=   1 cores,    1 groups


--------------------------------------------------------------------------------------------------------


 INCAR:
 POTCAR:   PAW_PBE Si 05Jan2001                   
 POTCAR:   PAW_PBE Si 05Jan2001                   
   VRHFIN =Si: s2p2                                                             
   LEXCH  = PE                                                                  
   EATOM  =   103.0669 eV,    7.5752 Ry                                         
                                                                                
   TITEL  = PAW_PBE Si 05Jan2001                                                
   LULTRA =        F    use ultrasoft PP ?                                      
   IUNSCR =        1    unscreen: 0-lin 1-nonlin 2-no                           
   RPACOR =    1.500    partial core radius                                     
   POMASS =   28.085; ZVAL   =    4.000    mass and valenz                      
   RCORE  =    1.900    outmost cutoff radius                                   
   RWIGS  =    2.480; RWIGS  =    1.312    wigner-seitz radius (au A)           
   ENMAX  =  245.345; ENMIN  =  184.009 eV                                      
   ICORE  =        2    local potential                                         
   LCOR   =        T    correct aug charges                                     
   LPAW   =        T    paw PP                                                  
   EAUG   =  322.069                                                            
   DEXC   =    -.007                                                            
   RMAX   =    2.944    core radius for proj-oper                               
   RAUG   =    1.300    factor for augmentation sphere                          
   RDEP   =    1.993    radius for radial grids                                 
   QCUT   =   -4.246; QGAM   =    8.493    optimization parameters              
                                                                                
   Description                                                                  
     l     E      TYP  RCUT    TYP  RCUT                                        
     0   .000     23  1.900                                                     
     0   .000     23  1.900                                                     
     1   .000     23  1.900                                                     
     1   .000     23  1.900                                                     
     2   .000      7  1.900                                                     
  local pseudopotential read in
  partial core-charges read in
  atomic valenz-charges read in
  non local Contribution for L=           0  read in
    real space projection operators read in
  non local Contribution for L=           0  read in
    real space projection operators read in
  non local Contribution for L=           1  read in
    real space projection operators read in
  non local Contribution for L=           1  read in
    real space projection operators read in
    PAW grid and wavefunctions read in
 
   number of l-projection  operators is LMAX  =           4
   number of lm-projection operators is LMMAX =           8
 
 PAW_PBE Si 05Jan2001                   :
 energy of atom  1       EATOM= -103.0669
 kinetic energy error for atom=    0.0012 (will be added to EATOM!!)
 
 
 POSCAR: Si (diamond, Fd-3m, 227)  a = 5.43 Å   
  positions in direct lattice
  No initial velocities read in
 exchange correlation table for  LEXCH =        8
   RHO(1)=    0.500       N(1)  =     2000
   RHO(2)=  100.500       N(2)  =     4000
 


--------------------------------------------------------------------------------------------------------


 ion  position               nearest neighbor table
   1  0.000  0.000  0.000-   5 2.35   6 2.35   7 2.35   8 2.35
   2  0.000  0.500  0.500-   5 2.35   6 2.35   7 2.35   8 2.35
   3  0.500  0.000  0.500-   5 2.35   6 2.35   7 2.35   8 2.35
   4  0.500  0.500  0.000-   5 2.35   6 2.35   7 2.35   8 2.35
   5  0.250  0.250  0.250-   1 2.35   2 2.35   3 2.35   4 2.35
   6  0.250  0.750  0.750-   1 2.35   2 2.35   3 2.35   4 2.35
   7  0.750  0.250  0.750-   1 2.35   2 2.35   3 2.35   4 2.35
   8  0.750  0.750  0.250-   1 2.35   2 2.35   3 2.35   4 2.35
 
  LATTYP: Found a simple cubic cell.
 ALAT       =     5.4300000000
  
  Lattice vectors:
  
 A1 = (   5.4300000000,   0.0000000000,   0.0000000000)
 A2 = (   0.0000000000,   5.4300000000,   0.0000000000)
 A3 = (   0.0000000000,   0.0000000000,   5.4300000000)


Analysis of symmetry for initial positions (statically):
=====================================================================
 Subroutine PRICEL returns following result:
 
  LATTYP: Found a face centered cubic cell.
 ALAT       =     5.4300000000
  
  Lattice vectors:
  
 A1 = (   2.7150000000,   2.7150000000,   0.0000000000)
 A2 = (   2.7150000000,   0.0000000000,  -2.7150000000)
 A3 = (   0.0000000000,   2.7150000000,  -2.7150000000)
 
   4 primitive cells build up your supercell.
 

 Routine SETGRP: Setting up the symmetry group for a 
 simple cubic supercell.


 Subroutine GETGRP returns: Found 48 space group operations
 (whereof 24 operations were pure point group operations)
 out of a pool of 48 trial point group operations.


The static configuration has the point symmetry T_d .
 The point group associated with its full space group is O_h .


Analysis of symmetry for dynamics (positions and initial velocities):
=====================================================================
 Subroutine PRICEL returns following result:
 
  LATTYP: Found a face centered cubic cell.
 ALAT       =     5.4300000000
  
  Lattice vectors:
  
 A1 = (   2.7150000000,   2.7150000000,   0.0000000000)
 A2 = (   2.7150000000,   0.0000000000,  -2.7150000000)
 A3 = (   0.0000000000,   2.7150000000,  -2.7150000000)
 
   4 primitive cells build up your supercell.
 

 Routine SETGRP: Setting up the symmetry group for a 
 simple cubic supercell.


 Subroutine GETGRP returns: Found 48 space group operations
 (whereof 24 operations were pure point group operations)
 out of a pool of 48 trial point group operations.


The dynamic configuration has the point symmetry T_d .
 The point group associated with its full space group is O_h .


 Subroutine INISYM returns: Found 48 space group operations
 (whereof 24 operations are pure point group operations),
 and found     4 'primitive' translations

 
 
 KPOINTS: KPOINTS                                 

Automatic generation of k-mesh.
Space group operators:
 irot       det(A)        alpha          n_x          n_y          n_z        tau_x        tau_y        tau_z
    1     1.000000     0.000001     1.000000     0.000000     0.000000     0.000000     0.000000     0.000000
    2     1.000000   120.000000    -0.577350    -0.577350    -0.577350     0.000000     0.000000     0.000000
    3     1.000000   120.000000     0.577350     0.577350     0.577350     0.000000     0.000000     0.000000
    4    -1.000000    90.000000     0.000000     0.000000    -1.000000     0.000000     0.000000     0.000000
    5    -1.000000   180.000000     0.000000     0.707107     0.707107     0.000000     0.000000     0.000000
    6    -1.000000    90.000000     0.000000     1.000000     0.000000     0.000000     0.000000     0.000000
    7     1.000000   180.000000     0.000000     0.000000     1.000000     0.000000     0.000000     0.000000
    8     1.000000   120.000000    -0.577350     0.577350     0.577350     0.000000     0.000000     0.000000
    9     1.000000   120.000000    -0.577350     0.577350    -0.577350     0.000000     0.000000     0.000000
   10    -1.000000    90.000000     0.000000     0.000000     1.000000     0.000000     0.000000     0.000000
   11    -1.000000    90.000000    -1.000000     0.000000     0.000000     0.000000     0.000000     0.000000
   12    -1.000000   180.000000     0.707107     0.000000     0.707107     0.000000     0.000000     0.000000
   13     1.000000   120.000000     0.577350    -0.577350     0.577350     0.000000     0.000000     0.000000
   14     1.000000   120.000000    -0.577350    -0.577350     0.577350     0.000000     0.000000     0.000000
   15     1.000000   180.000000     1.000000     0.000000     0.000000     0.000000     0.000000     0.000000
   16    -1.000000    90.000000     0.000000    -1.000000     0.000000     0.000000     0.000000     0.000000
   17    -1.000000   180.000000     0.707107     0.707107     0.000000     0.000000     0.000000     0.000000
   18    -1.000000    90.000000     1.000000     0.000000     0.000000     0.000000     0.000000     0.000000
   19     1.000000   120.000000     0.577350    -0.577350    -0.577350     0.000000     0.000000     0.000000
   20     1.000000   180.000000     0.000000     1.000000     0.000000     0.000000     0.000000     0.000000
   21     1.000000   120.000000     0.577350     0.577350    -0.577350     0.000000     0.000000     0.000000
   22    -1.000000   180.000000     0.000000    -0.707107     0.707107     0.000000     0.000000     0.000000
   23    -1.000000   180.000000     0.707107    -0.707107     0.000000     0.000000     0.000000     0.000000
   24    -1.000000   180.000000     0.707107     0.000000    -0.707107     0.000000     0.000000     0.000000
   25    -1.000000     0.000001     1.000000     0.000000     0.000000     0.750000     0.750000    -0.750000
   26    -1.000000   120.000000    -0.577350    -0.577350    -0.577350     0.750000     0.750000    -0.750000
   27    -1.000000   120.000000     0.577350     0.577350     0.577350     0.750000     0.750000    -0.750000
   28     1.000000    90.000000     0.000000     0.000000    -1.000000     0.750000     0.750000    -0.750000
   29     1.000000   180.000000     0.000000     0.707107     0.707107     0.750000     0.750000    -0.750000
   30     1.000000    90.000000     0.000000     1.000000     0.000000     0.750000     0.750000    -0.750000
   31    -1.000000   180.000000     0.000000     0.000000     1.000000     0.750000     0.750000    -0.750000
   32    -1.000000   120.000000    -0.577350     0.577350     0.577350     0.750000     0.750000    -0.750000
   33    -1.000000   120.000000    -0.577350     0.577350    -0.577350     0.750000     0.750000    -0.750000
   34     1.000000    90.000000     0.000000     0.000000     1.000000     0.750000     0.750000    -0.750000
   35     1.000000    90.000000    -1.000000     0.000000     0.000000     0.750000     0.750000    -0.750000
   36     1.000000   180.000000     0.707107     0.000000     0.707107     0.750000     0.750000    -0.750000
   37    -1.000000   120.000000     0.577350    -0.577350     0.577350     0.750000     0.750000    -0.750000
   38    -1.000000   120.000000    -0.577350    -0.577350     0.577350     0.750000     0.750000    -0.750000
   39    -1.000000   180.000000     1.000000     0.000000     0.000000     0.750000     0.750000    -0.750000
   40     1.000000    90.000000     0.000000    -1.000000     0.000000     0.750000     0.750000    -0.750000
   41     1.000000   180.000000     0.707107     0.707107     0.000000     0.750000     0.750000    -0.750000
   42     1.000000    90.000000     1.000000     0.000000     0.000000     0.750000     0.750000    -0.750000
   43    -1.000000   120.000000     0.577350    -0.577350    -0.577350     0.750000     0.750000    -0.750000
   44    -1.000000   180.000000     0.000000     1.000000     0.000000     0.750000     0.750000    -0.750000
   45    -1.000000   120.000000     0.577350     0.577350    -0.577350     0.750000     0.750000    -0.750000
   46     1.000000   180.000000     0.000000    -0.707107     0.707107     0.750000     0.750000    -0.750000
   47     1.000000   180.000000     0.707107    -0.707107     0.000000     0.750000     0.750000    -0.750000
   48     1.000000   180.000000     0.707107     0.000000    -0.707107     0.750000     0.750000    -0.750000
 
 Subroutine IBZKPT returns following result:
 ===========================================
 
 Found     56 irreducible k-points:
 
 Following reciprocal coordinates:
            Coordinates               Weight
  0.000000  0.000000  0.000000      1.000000
  0.100000  0.000000  0.000000      6.000000
  0.200000  0.000000  0.000000      6.000000
  0.300000  0.000000  0.000000      6.000000
  0.400000  0.000000  0.000000      6.000000
  0.500000  0.000000  0.000000      3.000000
  0.100000  0.100000  0.000000     12.000000
  0.200000  0.100000  0.000000     24.000000
  0.300000  0.100000  0.000000     24.000000
  0.400000  0.100000  0.000000     24.000000
  0.500000  0.100000  0.000000     12.000000
  0.200000  0.200000  0.000000     12.000000
  0.300000  0.200000  0.000000     24.000000
  0.400000  0.200000  0.000000     24.000000
  0.500000  0.200000  0.000000     12.000000
  0.300000  0.300000  0.000000     12.000000
  0.400000  0.300000  0.000000     24.000000
  0.500000  0.300000  0.000000     12.000000
  0.400000  0.400000  0.000000     12.000000
  0.500000  0.400000  0.000000     12.000000
  0.500000  0.500000  0.000000      3.000000
  0.100000  0.100000  0.100000      8.000000
  0.200000  0.100000  0.100000     24.000000
  0.300000  0.100000  0.100000     24.000000
  0.400000  0.100000  0.100000     24.000000
  0.500000  0.100000  0.100000     12.000000
  0.200000  0.200000  0.100000     24.000000
  0.300000  0.200000  0.100000     48.000000
  0.400000  0.200000  0.100000     48.000000
  0.500000  0.200000  0.100000     24.000000
  0.300000  0.300000  0.100000     24.000000
  0.400000  0.300000  0.100000     48.000000
  0.500000  0.300000  0.100000     24.000000
  0.400000  0.400000  0.100000     24.000000
  0.500000  0.400000  0.100000     24.000000
  0.500000  0.500000  0.100000      6.000000
  0.200000  0.200000  0.200000      8.000000
  0.300000  0.200000  0.200000     24.000000
  0.400000  0.200000  0.200000     24.000000
  0.500000  0.200000  0.200000     12.000000
  0.300000  0.300000  0.200000     24.000000
  0.400000  0.300000  0.200000     48.000000
  0.500000  0.300000  0.200000     24.000000
  0.400000  0.400000  0.200000     24.000000
  0.500000  0.400000  0.200000     24.000000
  0.500000  0.500000  0.200000      6.000000
  0.300000  0.300000  0.300000      8.000000
  0.400000  0.300000  0.300000     24.000000
  0.500000  0.300000  0.300000     12.000000
  0.400000  0.400000  0.300000     24.000000
  0.500000  0.400000  0.300000     24.000000
  0.500000  0.500000  0.300000      6.000000
  0.400000  0.400000  0.400000      8.000000
  0.500000  0.400000  0.400000     12.000000
  0.500000  0.500000  0.400000      6.000000
  0.500000  0.500000  0.500000      1.000000
 
 Following cartesian coordinates:
            Coordinates               Weight
  0.000000  0.000000  0.000000      1.000000
  0.100000  0.000000  0.000000      6.000000
  0.200000  0.000000  0.000000      6.000000
  0.300000  0.000000  0.000000      6.000000
  0.400000  0.000000  0.000000      6.000000
  0.500000  0.000000  0.000000      3.000000
  0.100000  0.100000  0.000000     12.000000
  0.200000  0.100000  0.000000     24.000000
  0.300000  0.100000  0.000000     24.000000
  0.400000  0.100000  0.000000     24.000000
  0.500000  0.100000  0.000000     12.000000
  0.200000  0.200000  0.000000     12.000000
  0.300000  0.200000  0.000000     24.000000
  0.400000  0.200000  0.000000     24.000000
  0.500000  0.200000  0.000000     12.000000
  0.300000  0.300000  0.000000     12.000000
  0.400000  0.300000  0.000000     24.000000
  0.500000  0.300000  0.000000     12.000000
  0.400000  0.400000  0.000000     12.000000
  0.500000  0.400000  0.000000     12.000000
  0.500000  0.500000  0.000000      3.000000
  0.100000  0.100000  0.100000      8.000000
  0.200000  0.100000  0.100000     24.000000
  0.300000  0.100000  0.100000     24.000000
  0.400000  0.100000  0.100000     24.000000
  0.500000  0.100000  0.100000     12.000000
  0.200000  0.200000  0.100000     24.000000
  0.300000  0.200000  0.100000     48.000000
  0.400000  0.200000  0.100000     48.000000
  0.500000  0.200000  0.100000     24.000000
  0.300000  0.300000  0.100000     24.000000
  0.400000  0.300000  0.100000     48.000000
  0.500000  0.300000  0.100000     24.000000
  0.400000  0.400000  0.100000     24.000000
  0.500000  0.400000  0.100000     24.000000
  0.500000  0.500000  0.100000      6.000000
  0.200000  0.200000  0.200000      8.000000
  0.300000  0.200000  0.200000     24.000000
  0.400000  0.200000  0.200000     24.000000
  0.500000  0.200000  0.200000     12.000000
  0.300000  0.300000  0.200000     24.000000
  0.400000  0.300000  0.200000     48.000000
  0.500000  0.300000  0.200000     24.000000
  0.400000  0.400000  0.200000     24.000000
  0.500000  0.400000  0.200000     24.000000
  0.500000  0.500000  0.200000      6.000000
  0.300000  0.300000  0.300000      8.000000
  0.400000  0.300000  0.300000     24.000000
  0.500000  0.300000  0.300000     12.000000
  0.400000  0.400000  0.300000     24.000000
  0.500000  0.400000  0.300000     24.000000
  0.500000  0.500000  0.300000      6.000000
  0.400000  0.400000  0.400000      8.000000
  0.500000  0.400000  0.400000     12.000000
  0.500000  0.500000  0.400000      6.000000
  0.500000  0.500000  0.500000      1.000000
 
 TETIRR: Found    492 inequivalent tetrahedra from     6000


--------------------------------------------------------------------------------------------------------




 Dimension of arrays:
   k-points           NKPTS =     56   k-points in BZ     NKDIM =     56   number of bands    NBANDS=     21
   number of dos      NEDOS =    301   number of ions     NIONS =      8
   non local maximal  LDIM  =      4   non local SUM 2l+1 LMDIM =      8
   total plane-waves  NPLWV =  46656
   max r-space proj   IRMAX =      1   max aug-charges    IRDMAX=   9942
   dimension x,y,z NGX =    36 NGY =   36 NGZ =   36
   dimension x,y,z NGXF=    72 NGYF=   72 NGZF=   72
   support grid    NGXF=    72 NGYF=   72 NGZF=   72
   ions per type =               8
   NGX,Y,Z   is equivalent  to a cutoff of  11.02, 11.02, 11.02 a.u.
   NGXF,Y,Z  is equivalent  to a cutoff of  22.04, 22.04, 22.04 a.u.

 SYSTEM =  Si (diamond)                            
 POSCAR =  Si (diamond, Fd-3m, 227)  a = 5.43 Å   

 Startparameter for this run:
   NWRITE =      2    write-flag & timer
   PREC   = accura    normal or accurate (medium, high low for compatibility)
   ISTART =      0    job   : 0-new  1-cont  2-samecut
   ICHARG =      2    charge: 1-file 2-atom 10-const
   ISPIN  =      1    spin polarized calculation?
   LNONCOLLINEAR =      F non collinear calculations
   LSORBIT =      F    spin-orbit coupling
   INIWAV =      1    electr: 0-lowe 1-rand  2-diag
   LASPH  =      F    aspherical Exc in radial PAW
   METAGGA=      F    non-selfconsistent MetaGGA calc.

 Electronic Relaxation 1
   ENCUT  =  400.0 eV  29.40 Ry    5.42 a.u.   8.85  8.85  8.85*2*pi/ulx,y,z
   ENINI  =  400.0     initial cutoff
   ENAUG  =  322.1 eV  augmentation charge cutoff
   NELM   =     60;   NELMIN=  2; NELMDL= -5     # of ELM steps 
   EDIFF  = 0.1E-05   stopping-criterion for ELM
   LREAL  =      F    real-space projection
   NLSPLINE    = F    spline interpolate recip. space projectors
   LCOMPAT=      F    compatible to vasp.4.4
   GGA_COMPAT  = T    GGA compatible to vasp.4.4-vasp.4.6
   LMAXPAW     = -100 max onsite density
   LMAXMIX     =    2 max onsite mixed and CHGCAR
   VOSKOWN=      0    Vosko Wilk Nusair interpolation
   ROPT   =    0.00000
 Ionic relaxation
   EDIFFG = 0.1E-04   stopping-criterion for IOM
   NSW    =      0    number of steps for IOM
   NBLOCK =      1;   KBLOCK =      1    inner block; outer block 
   IBRION =     -1    ionic relax: 0-MD 1-quasi-New 2-CG
   NFREE  =      0    steps in history (QN), initial steepest desc. (CG)
   ISIF   =      2    stress and relaxation
   IWAVPR =     10    prediction:  0-non 1-charg 2-wave 3-comb
   ISYM   =      2    0-nonsym 1-usesym 2-fastsym
   LCORR  =      T    Harris-Foulkes like correction to forces

   POTIM  = 0.5000    time-step for ionic-motion
   TEIN   =    0.0    initial temperature
   TEBEG  =    0.0;   TEEND  =   0.0 temperature during run
   SMASS  =  -3.00    Nose mass-parameter (am)
   estimated Nose-frequenzy (Omega)   =  0.10E-29 period in steps =****** mass=  -0.674E-27a.u.
   SCALEE = 1.0000    scale energy and forces
   NPACO  =    256;   APACO  = 16.0  distance and # of slots for P.C.
   PSTRESS=    0.0 pullay stress

  Mass of Ions in am
   POMASS =  28.09
  Ionic Valenz
   ZVAL   =   4.00
  Atomic Wigner-Seitz radii
   RWIGS  =  -1.00
  virtual crystal weights 
   VCA    =   1.00
   NELECT =      32.0000    total number of electrons
   NUPDOWN=      -1.0000    fix difference up-down

 DOS related values:
   EMIN   =  10.00;   EMAX   =-10.00  energy-range for DOS
   EFERMI =   0.00
   ISMEAR =    -5;   SIGMA  =   0.20  broadening in eV -4-tet -1-fermi 0-gaus

 Electronic relaxation 2 (details)
   IALGO  =     38    algorithm
   LDIAG  =      T    sub-space diagonalisation (order eigenvalues)
   LSUBROT=      F    optimize rotation matrix (better conditioning)
   TURBO    =      0    0=normal 1=particle mesh
   IRESTART =      0    0=no restart 2=restart with 2 vectors
   NREBOOT  =      0    no. of reboots
   NMIN     =      0    reboot dimension
   EREF     =   0.00    reference energy to select bands
   IMIX   =      4    mixing-type and parameters
     AMIX     =   0.40;   BMIX     =  1.00
     AMIX_MAG =   1.60;   BMIX_MAG =  1.00
     AMIN     =   0.10
     WC   =   100.;   INIMIX=   1;  MIXPRE=   1;  MAXMIX= -45

 Intra band minimization:
   WEIMIN = 0.0000     energy-eigenvalue tresh-hold
   EBREAK =  0.12E-07  absolut break condition
   DEPER  =   0.30     relativ break condition  

   TIME   =   0.40     timestep for ELM

  volume/ion in A,a.u.               =      20.01       135.05
  Fermi-wavevector in a.u.,A,eV,Ry     =   0.957176  1.808800 12.465458  0.916185
  Thomas-Fermi vector in A             =   2.086170
 
 Write flags
   LWAVE        =      F    write WAVECAR
   LDOWNSAMPLE  =      F    k-point downsampling of WAVECAR
   LCHARG       =      T    write CHGCAR
   LVTOT        =      F    write LOCPOT, total local potential
   LVHAR        =      F    write LOCPOT, Hartree potential only
   LELF         =      F    write electronic localiz. function (ELF)
   LORBIT       =      0    0 simple, 1 ext, 2 COOP (PROOUT), +10 PAW based schemes


 Dipole corrections
   LMONO  =      F    monopole corrections only (constant potential shift)
   LDIPOL =      F    correct potential (dipole corrections)
   IDIPOL =      0    1-x, 2-y, 3-z, 4-all directions 
   EPSILON=  1.0000000 bulk dielectric constant

 Exchange correlation treatment:
   GGA     =    --    GGA type
   LEXCH   =     8    internal setting for exchange type
   VOSKOWN=      0    Vosko Wilk Nusair interpolation
   LHFCALC =     F    Hartree Fock is set to
   LHFONE  =     F    Hartree Fock one center treatment
   AEXX    =    0.0000 exact exchange contribution

 Linear response parameters
   LEPSILON=     F    determine dielectric tensor
   LRPA    =     F    only Hartree local field effects (RPA)
   LNABLA  =     F    use nabla operator in PAW spheres
   LVEL    =     F    velocity operator in full k-point grid
   LINTERFAST=   F  fast interpolation
   KINTER  =     0    interpolate to denser k-point grid
   CSHIFT  =0.1000    complex shift for real part using Kramers Kronig
   OMEGAMAX=  -1.0    maximum frequency
   DEG_THRESHOLD= 0.2000000E-02 threshold for treating states as degnerate
   RTIME   =   -0.100 relaxation time in fs
  (WPLASMAI=    0.000 imaginary part of plasma frequency in eV, 0.658/RTIME)
   DFIELD  = 0.0000000 0.0000000 0.0000000 field for delta impulse in time
 
 Orbital magnetization related:
   ORBITALMAG=     F  switch on orbital magnetization
   LCHIMAG   =     F  perturbation theory with respect to B field
   DQ        =  0.001000  dq finite difference perturbation B field
   LLRAUG    =     F  two centre corrections for induced B field



--------------------------------------------------------------------------------------------------------


 Static calculation
 charge density and potential will be updated during run
 non-spin polarized calculation
 Variant of blocked Davidson
 Davidson routine will perform the subspace rotation
 perform sub-space diagonalisation
    after iterative eigenvector-optimisation
 modified Broyden-mixing scheme, WC =      100.0
 initial mixing is a Kerker type mixing with AMIX =  0.4000 and BMIX =      1.0000
 Hartree-type preconditioning will be used
 using additional bands            5
 reciprocal scheme for non local part
 use partial core corrections
 calculate Harris-corrections to forces 
   (improved forces if not selfconsistent)
 use gradient corrections 
 use of overlap-Matrix (Vanderbilt PP)
 Fermi weights with tetrahedron method with Bloechl corrections


--------------------------------------------------------------------------------------------------------


  energy-cutoff  :      400.00
  volume of cell :      160.10
      direct lattice vectors                 reciprocal lattice vectors
     5.430000000  0.000000000  0.000000000     0.184162063  0.000000000  0.000000000
     0.000000000  5.430000000  0.000000000     0.000000000  0.184162063  0.000000000
     0.000000000  0.000000000  5.430000000     0.000000000  0.000000000  0.184162063

  length of vectors
     5.430000000  5.430000000  5.430000000     0.184162063  0.184162063  0.184162063


 
 k-points in units of 2pi/SCALE and weight: KPOINTS                                 
   0.00000000  0.00000000  0.00000000       0.001
   0.10000000  0.00000000  0.00000000       0.006
   0.20000000  0.00000000  0.00000000       0.006
   0.30000000  0.00000000  0.00000000       0.006
   0.40000000  0.00000000  0.00000000       0.006
   0.50000000  0.00000000  0.00000000       0.003
   0.10000000  0.10000000  0.00000000       0.012
   0.20000000  0.10000000  0.00000000       0.024
   0.30000000  0.10000000  0.00000000       0.024
   0.40000000  0.10000000  0.00000000       0.024
   0.50000000  0.10000000  0.00000000       0.012
   0.20000000  0.20000000  0.00000000       0.012
   0.30000000  0.20000000  0.00000000       0.024
   0.40000000  0.20000000  0.00000000       0.024
   0.50000000  0.20000000  0.00000000       0.012
   0.30000000  0.30000000  0.00000000       0.012
   0.40000000  0.30000000  0.00000000       0.024
   0.50000000  0.30000000  0.00000000       0.012
   0.40000000  0.40000000  0.00000000       0.012
   0.50000000  0.40000000  0.00000000       0.012
   0.50000000  0.50000000  0.00000000       0.003
   0.10000000  0.10000000  0.10000000       0.008
   0.20000000  0.10000000  0.10000000       0.024
   0.30000000  0.10000000  0.10000000       0.024
   0.40000000  0.10000000  0.10000000       0.024
   0.50000000  0.10000000  0.10000000       0.012
   0.20000000  0.20000000  0.10000000       0.024
   0.30000000  0.20000000  0.10000000       0.048
   0.40000000  0.20000000  0.10000000       0.048
   0.50000000  0.20000000  0.10000000       0.024
   0.30000000  0.30000000  0.10000000       0.024
   0.40000000  0.30000000  0.10000000       0.048
   0.50000000  0.30000000  0.10000000       0.024
   0.40000000  0.40000000  0.10000000       0.024
   0.50000000  0.40000000  0.10000000       0.024
   0.50000000  0.50000000  0.10000000       0.006
   0.20000000  0.20000000  0.20000000       0.008
   0.30000000  0.20000000  0.20000000       0.024
   0.40000000  0.20000000  0.20000000       0.024
   0.50000000  0.20000000  0.20000000       0.012
   0.30000000  0.30000000  0.20000000       0.024
   0.40000000  0.30000000  0.20000000       0.048
   0.50000000  0.30000000  0.20000000       0.024
   0.40000000  0.40000000  0.20000000       0.024
   0.50000000  0.40000000  0.20000000       0.024
   0.50000000  0.50000000  0.20000000       0.006
   0.30000000  0.30000000  0.30000000       0.008
   0.40000000  0.30000000  0.30000000       0.024
   0.50000000  0.30000000  0.30000000       0.012
   0.40000000  0.40000000  0.30000000       0.024
   0.50000000  0.40000000  0.30000000       0.024
   0.50000000  0.50000000  0.30000000       0.006
   0.40000000  0.40000000  0.40000000       0.008
   0.50000000  0.40000000  0.40000000       0.012
   0.50000000  0.50000000  0.40000000       0.006
   0.50000000  0.50000000  0.50000000       0.001
 
 k-points in reciprocal lattice and weights: KPOINTS                                 
   0.00000000  0.00000000  0.00000000       0.001
   0.10000000  0.00000000  0.00000000       0.006
   0.20000000  0.00000000  0.00000000       0.006
   0.30000000  0.00000000  0.00000000       0.006
   0.40000000  0.00000000  0.00000000       0.006
   0.50000000  0.00000000  0.00000000       0.003
   0.10000000  0.10000000  0.00000000       0.012
   0.20000000  0.10000000  0.00000000       0.024
   0.30000000  0.10000000  0.00000000       0.024
   0.40000000  0.10000000  0.00000000       0.024
   0.50000000  0.10000000  0.00000000       0.012
   0.20000000  0.20000000  0.00000000       0.012
   0.30000000  0.20000000  0.00000000       0.024
   0.40000000  0.20000000  0.00000000       0.024
   0.50000000  0.20000000  0.00000000       0.012
   0.30000000  0.30000000  0.00000000       0.012
   0.40000000  0.30000000  0.00000000       0.024
   0.50000000  0.30000000  0.00000000       0.012
   0.40000000  0.40000000  0.00000000       0.012
   0.50000000  0.40000000  0.00000000       0.012
   0.50000000  0.50000000  0.00000000       0.003
   0.10000000  0.10000000  0.10000000       0.008
   0.20000000  0.10000000  0.10000000       0.024
   0.30000000  0.10000000  0.10000000       0.024
   0.40000000  0.10000000  0.10000000       0.024
   0.50000000  0.10000000  0.10000000       0.012
   0.20000000  0.20000000  0.10000000       0.024
   0.30000000  0.20000000  0.10000000       0.048
   0.40000000  0.20000000  0.10000000       0.048
   0.50000000  0.20000000  0.10000000       0.024
   0.30000000  0.30000000  0.10000000       0.024
   0.40000000  0.30000000  0.10000000       0.048
   0.50000000  0.30000000  0.10000000       0.024
   0.40000000  0.40000000  0.10000000       0.024
   0.50000000  0.40000000  0.10000000       0.024
   0.50000000  0.50000000  0.10000000       0.006
   0.20000000  0.20000000  0.20000000       0.008
   0.30000000  0.20000000  0.20000000       0.024
   0.40000000  0.20000000  0.20000000       0.024
   0.50000000  0.20000000  0.20000000       0.012
   0.30000000  0.30000000  0.20000000       0.024
   0.40000000  0.30000000  0.20000000       0.048
   0.50000000  0.30000000  0.20000000       0.024
   0.40000000  0.40000000  0.20000000       0.024
   0.50000000  0.40000000  0.20000000       0.024
   0.50000000  0.50000000  0.20000000       0.006
   0.30000000  0.30000000  0.30000000       0.008
   0.40000000  0.30000000  0.30000000       0.024
   0.50000000  0.30000000  0.30000000       0.012
   0.40000000  0.40000000  0.30000000       0.024
   0.50000000  0.40000000  0.30000000       0.024
   0.50000000  0.50000000  0.30000000       0.006
   0.40000000  0.40000000  0.40000000       0.008
   0.50000000  0.40000000  0.40000000       0.012
   0.50000000  0.50000000  0.40000000       0.006
   0.50000000  0.50000000  0.50000000       0.001
 
 position of ions in fractional coordinates (direct lattice) 
   0.00000000  0.00000000  0.00000000
   0.00000000  0.50000000  0.50000000
   0.50000000  0.00000000  0.50000000
   0.50000000  0.50000000  0.00000000
   0.25000000  0.25000000  0.25000000
   0.25000000  0.75000000  0.75000000
   0.75000000  0.25000000  0.75000000
   0.75000000  0.75000000  0.25000000
 
 position of ions in cartesian coordinates  (Angst):
   0.00000000  0.00000000  0.00000000
   0.00000000  2.71500000  2.71500000
   2.71500000  0.00000000  2.71500000
   2.71500000  2.71500000  0.00000000
   1.35750000  1.35750000  1.35750000
   1.35750000  4.07250000  4.07250000
   4.07250000  1.35750000  4.07250000
   4.07250000  4.07250000  1.35750000
 


--------------------------------------------------------------------------------------------------------


 k-point  1 :   0.0000 0.0000 0.0000  plane waves:    2945
 k-point  2 :   0.1000 0.0000 0.0000  plane waves:    2925
 k-point  3 :   0.2000 0.0000 0.0000  plane waves:    2898
 k-point  4 :   0.3000 0.0000 0.0000  plane waves:    2898
 k-point  5 :   0.4000 0.0000 0.0000  plane waves:    2894
 k-point  6 :   0.5000 0.0000 0.0000  plane waves:    2906
 k-point  7 :   0.1000 0.1000 0.0000  plane waves:    2901
 k-point  8 :   0.2000 0.1000 0.0000  plane waves:    2908
 k-point  9 :   0.3000 0.1000 0.0000  plane waves:    2902
 k-point 10 :   0.4000 0.1000 0.0000  plane waves:    2897
 k-point 11 :   0.5000 0.1000 0.0000  plane waves:    2894
 k-point 12 :   0.2000 0.2000 0.0000  plane waves:    2909
 k-point 13 :   0.3000 0.2000 0.0000  plane waves:    2900
 k-point 14 :   0.4000 0.2000 0.0000  plane waves:    2901
 k-point 15 :   0.5000 0.2000 0.0000  plane waves:    2910
 k-point 16 :   0.3000 0.3000 0.0000  plane waves:    2926
 k-point 17 :   0.4000 0.3000 0.0000  plane waves:    2911
 k-point 18 :   0.5000 0.3000 0.0000  plane waves:    2906
 k-point 19 :   0.4000 0.4000 0.0000  plane waves:    2920
 k-point 20 :   0.5000 0.4000 0.0000  plane waves:    2920
 k-point 21 :   0.5000 0.5000 0.0000  plane waves:    2864
 k-point 22 :   0.1000 0.1000 0.1000  plane waves:    2906
 k-point 23 :   0.2000 0.1000 0.1000  plane waves:    2907
 k-point 24 :   0.3000 0.1000 0.1000  plane waves:    2905
 k-point 25 :   0.4000 0.1000 0.1000  plane waves:    2904
 k-point 26 :   0.5000 0.1000 0.1000  plane waves:    2910
 k-point 27 :   0.2000 0.2000 0.1000  plane waves:    2908
 k-point 28 :   0.3000 0.2000 0.1000  plane waves:    2907
 k-point 29 :   0.4000 0.2000 0.1000  plane waves:    2910
 k-point 30 :   0.5000 0.2000 0.1000  plane waves:    2910
 k-point 31 :   0.3000 0.3000 0.1000  plane waves:    2901
 k-point 32 :   0.4000 0.3000 0.1000  plane waves:    2902
 k-point 33 :   0.5000 0.3000 0.1000  plane waves:    2910
 k-point 34 :   0.4000 0.4000 0.1000  plane waves:    2905
 k-point 35 :   0.5000 0.4000 0.1000  plane waves:    2902
 k-point 36 :   0.5000 0.5000 0.1000  plane waves:    2920
 k-point 37 :   0.2000 0.2000 0.2000  plane waves:    2905
 k-point 38 :   0.3000 0.2000 0.2000  plane waves:    2902
 k-point 39 :   0.4000 0.2000 0.2000  plane waves:    2898
 k-point 40 :   0.5000 0.2000 0.2000  plane waves:    2908
 k-point 41 :   0.3000 0.3000 0.2000  plane waves:    2902
 k-point 42 :   0.4000 0.3000 0.2000  plane waves:    2908
 k-point 43 :   0.5000 0.3000 0.2000  plane waves:    2916
 k-point 44 :   0.4000 0.4000 0.2000  plane waves:    2918
 k-point 45 :   0.5000 0.4000 0.2000  plane waves:    2910
 k-point 46 :   0.5000 0.5000 0.2000  plane waves:    2916
 k-point 47 :   0.3000 0.3000 0.3000  plane waves:    2923
 k-point 48 :   0.4000 0.3000 0.3000  plane waves:    2913
 k-point 49 :   0.5000 0.3000 0.3000  plane waves:    2912
 k-point 50 :   0.4000 0.4000 0.3000  plane waves:    2931
 k-point 51 :   0.5000 0.4000 0.3000  plane waves:    2926
 k-point 52 :   0.5000 0.5000 0.3000  plane waves:    2928
 k-point 53 :   0.4000 0.4000 0.4000  plane waves:    2923
 k-point 54 :   0.5000 0.4000 0.4000  plane waves:    2932
 k-point 55 :   0.5000 0.5000 0.4000  plane waves:    2924
 k-point 56 :   0.5000 0.5000 0.5000  plane waves:    2872

 maximum and minimum number of plane-waves per node :      2945     2864

 maximum number of plane-waves:      2945
 maximum index in each direction: 
   IXMAX=    8   IYMAX=    8   IZMAX=    8
   IXMIN=   -9   IYMIN=   -9   IZMIN=   -9


 serial   3D FFT for wavefunctions
 parallel 3D FFT for charge:
    minimum data exchange during FFTs selected (reduces bandwidth)


 total amount of memory used by VASP MPI-rank0   130766. kBytes
=======================================================================

   base      :      30000. kBytes
   nonl-proj :      10931. kBytes
   fftplans  :      13060. kBytes
   grid      :      20134. kBytes
   one-center:         24. kBytes
   wavefun   :      56617. kBytes
 
     INWAV:  cpu time    0.0000: real time    0.0001
 Broyden mixing: mesh for mixing (old mesh)
   NGX = 17   NGY = 17   NGZ = 17
  (NGX  = 72   NGY  = 72   NGZ  = 72)
  gives a total of   4913 points

 initial charge density was supplied:
 charge density of overlapping atoms calculated
 number of electron      32.0000000 magnetization 
 keeping initial charge density in first step


--------------------------------------------------------------------------------------------------------


 Maximum index for augmentation-charges         9459 (set IRDMAX)


--------------------------------------------------------------------------------------------------------


 First call to EWALD:  gamma=   0.326
 Maximum number of real-space cells 3x 3x 3
 Maximum number of reciprocal cells 3x 3x 3

    FEWALD:  cpu time    0.0012: real time    0.0012


--------------------------------------- Iteration      1(   1)  ---------------------------------------


    POTLOK:  cpu time    0.1167: real time    0.1175
    SETDIJ:  cpu time    0.0079: real time    0.0079
     EDDAV:  cpu time    3.1696: real time    3.1834
 BZINTS: Fermi energy: 12.025997; 32.000000 electrons
         Band energy: 118.066737;  BLOECHL correction: -0.179272
       DOS:  cpu time    0.0150: real time    0.0150
    --------------------------------------------
      LOOP:  cpu time    3.3093: real time    3.3238

 eigenvalue-minimisations  :  2352
 total energy-change (2. order) : 0.6413006E+02  (-0.1044524E+04)
 number of electron      32.0000000 magnetization 
 augmentation part       32.0000000 magnetization 

 Free energy of the ion-electron system (eV)
  ---------------------------------------------------
  alpha Z        PSCENC =        13.45656811
  Ewald energy   TEWEN  =      -914.25413255
  -Hartree energ DENC   =       -44.00432972
  -exchange      EXHF   =         0.00000000
  -V(xc)+E(xc)   XCENC  =       -74.40747923
  PAW double counting   =       263.82083246     -123.07410713
  entropy T*S    EENTRO =         0.00000000
  eigenvalues    EBANDS =       118.06673707
  atomic energy  EATOM  =       824.52596983
  Solvation  Ediel_sol  =         0.00000000
  ---------------------------------------------------
  free energy    TOTEN  =        64.13005883 eV

  energy without entropy =       64.13005883  energy(sigma->0) =       64.13005883


--------------------------------------------------------------------------------------------------------




--------------------------------------- Iteration      1(   2)  ---------------------------------------


     EDDAV:  cpu time    3.9151: real time    3.9323
 BZINTS: Fermi energy:  6.399025; 32.000000 electrons
         Band energy:  14.821386;  BLOECHL correction: -0.000049
       DOS:  cpu time    0.0115: real time    0.0116
    --------------------------------------------
      LOOP:  cpu time    3.9267: real time    3.9438

 eigenvalue-minimisations  :  3171
 total energy-change (2. order) :-0.1032454E+03  (-0.9765446E+02)
 number of electron      32.0000000 magnetization 
 augmentation part       32.0000000 magnetization 

 Free energy of the ion-electron system (eV)
  ---------------------------------------------------
  alpha Z        PSCENC =        13.45656811
  Ewald energy   TEWEN  =      -914.25413255
  -Hartree energ DENC   =       -44.00432972
  -exchange      EXHF   =         0.00000000
  -V(xc)+E(xc)   XCENC  =       -74.40747923
  PAW double counting   =       263.82083246     -123.07410713
  entropy T*S    EENTRO =         0.00000000
  eigenvalues    EBANDS =        14.82138579
  atomic energy  EATOM  =       824.52596983
  Solvation  Ediel_sol  =         0.00000000
  ---------------------------------------------------
  free energy    TOTEN  =       -39.11529244 eV

  energy without entropy =      -39.11529244  energy(sigma->0) =      -39.11529244


--------------------------------------------------------------------------------------------------------




--------------------------------------- Iteration      1(   3)  ---------------------------------------


     EDDAV:  cpu time    3.7548: real time    3.7713
 BZINTS: Fermi energy:  5.524390; 32.000000 electrons
         Band energy:   9.934538;  BLOECHL correction:  0.000000
       DOS:  cpu time    0.0044: real time    0.0044
    --------------------------------------------
      LOOP:  cpu time    3.7591: real time    3.7757

 eigenvalue-minimisations  :  3012
 total energy-change (2. order) :-0.4886848E+01  (-0.4822607E+01)
 number of electron      32.0000000 magnetization 
 augmentation part       32.0000000 magnetization 

 Free energy of the ion-electron system (eV)
  ---------------------------------------------------
  alpha Z        PSCENC =        13.45656811
  Ewald energy   TEWEN  =      -914.25413255
  -Hartree energ DENC   =       -44.00432972
  -exchange      EXHF   =         0.00000000
  -V(xc)+E(xc)   XCENC  =       -74.40747923
  PAW double counting   =       263.82083246     -123.07410713
  entropy T*S    EENTRO =         0.00000000
  eigenvalues    EBANDS =         9.93453783
  atomic energy  EATOM  =       824.52596983
  Solvation  Ediel_sol  =         0.00000000
  ---------------------------------------------------
  free energy    TOTEN  =       -44.00214041 eV

  energy without entropy =      -44.00214041  energy(sigma->0) =      -44.00214041


--------------------------------------------------------------------------------------------------------




--------------------------------------- Iteration      1(   4)  ---------------------------------------


     EDDAV:  cpu time    3.6831: real time    3.6997
 BZINTS: Fermi energy:  5.331688; 32.000000 electrons
         Band energy:   9.840686;  BLOECHL correction:  0.000000
       DOS:  cpu time    0.0040: real time    0.0040
    --------------------------------------------
      LOOP:  cpu time    3.6871: real time    3.7037

 eigenvalue-minimisations  :  2930
 total energy-change (2. order) :-0.9385150E-01  (-0.9353717E-01)
 number of electron      32.0000000 magnetization 
 augmentation part       32.0000000 magnetization 

 Free energy of the ion-electron system (eV)
  ---------------------------------------------------
  alpha Z        PSCENC =        13.45656811
  Ewald energy   TEWEN  =      -914.25413255
  -Hartree energ DENC   =       -44.00432972
  -exchange      EXHF   =         0.00000000
  -V(xc)+E(xc)   XCENC  =       -74.40747923
  PAW double counting   =       263.82083246     -123.07410713
  entropy T*S    EENTRO =         0.00000000
  eigenvalues    EBANDS =         9.84068632
  atomic energy  EATOM  =       824.52596983
  Solvation  Ediel_sol  =         0.00000000
  ---------------------------------------------------
  free energy    TOTEN  =       -44.09599191 eV

  energy without entropy =      -44.09599191  energy(sigma->0) =      -44.09599191


--------------------------------------------------------------------------------------------------------




--------------------------------------- Iteration      1(   5)  ---------------------------------------


     EDDAV:  cpu time    3.6925: real time    3.7104
 BZINTS: Fermi energy:  5.305648; 32.000000 electrons
         Band energy:   9.838402;  BLOECHL correction:  0.000000
       DOS:  cpu time    0.0036: real time    0.0036
    CHARGE:  cpu time    0.2869: real time    0.2889
    MIXING:  cpu time    0.0069: real time    0.0070
    --------------------------------------------
      LOOP:  cpu time    3.9899: real time    4.0098

 eigenvalue-minimisations  :  2952
 total energy-change (2. order) :-0.2284593E-02  (-0.2283340E-02)
 number of electron      31.9999993 magnetization 
 augmentation part       -1.8834312 magnetization 

 Broyden mixing:
  rms(total) = 0.60186E+00    rms(broyden)= 0.60185E+00
  rms(prec ) = 0.11214E+01
  weight for this iteration     100.00

 Free energy of the ion-electron system (eV)
  ---------------------------------------------------
  alpha Z        PSCENC =        13.45656811
  Ewald energy   TEWEN  =      -914.25413255
  -Hartree energ DENC   =       -44.00432972
  -exchange      EXHF   =         0.00000000
  -V(xc)+E(xc)   XCENC  =       -74.40747923
  PAW double counting   =       263.82083246     -123.07410713
  entropy T*S    EENTRO =         0.00000000
  eigenvalues    EBANDS =         9.83840173
  atomic energy  EATOM  =       824.52596983
  Solvation  Ediel_sol  =         0.00000000
  ---------------------------------------------------
  free energy    TOTEN  =       -44.09827651 eV

  energy without entropy =      -44.09827651  energy(sigma->0) =      -44.09827651


--------------------------------------------------------------------------------------------------------




--------------------------------------- Iteration      1(   6)  ---------------------------------------


    POTLOK:  cpu time    0.1135: real time    0.1140
    SETDIJ:  cpu time    0.0075: real time    0.0076
     EDDAV:  cpu time    3.4770: real time    3.4954
 BZINTS: Fermi energy:  5.514276; 32.000000 electrons
         Band energy:  15.822949;  BLOECHL correction:  0.000000
       DOS:  cpu time    0.0037: real time    0.0037
    CHARGE:  cpu time    0.2817: real time    0.2829
    MIXING:  cpu time    0.0072: real time    0.0073
    --------------------------------------------
      LOOP:  cpu time    3.8907: real time    3.9108

 eigenvalue-minimisations  :  2737
 total energy-change (2. order) : 0.4992860E+00  (-0.2788281E-01)
 number of electron      31.9999993 magnetization 
 augmentation part       -1.8606126 magnetization 

 Broyden mixing:
  rms(total) = 0.35775E+00    rms(broyden)= 0.35775E+00
  rms(prec ) = 0.66276E+00
  weight for this iteration     100.00

 eigenvalues of (default mixing * dielectric matrix)
  average eigenvalue GAMMA=   2.4448
  2.4448

 Free energy of the ion-electron system (eV)
  ---------------------------------------------------
  alpha Z        PSCENC =        13.45656811
  Ewald energy   TEWEN  =      -914.25413255
  -Hartree energ DENC   =       -49.99349379
  -exchange      EXHF   =         0.00000000
  -V(xc)+E(xc)   XCENC  =       -73.46010383
  PAW double counting   =       279.78196133     -139.47870834
  entropy T*S    EENTRO =         0.00000000
  eigenvalues    EBANDS =        15.82294879
  atomic energy  EATOM  =       824.52596983
  Solvation  Ediel_sol  =         0.00000000
  ---------------------------------------------------
  free energy    TOTEN  =       -43.59899046 eV

  energy without entropy =      -43.59899046  energy(sigma->0) =      -43.59899046


--------------------------------------------------------------------------------------------------------




--------------------------------------- Iteration      1(   7)  ---------------------------------------


    POTLOK:  cpu time    0.1144: real time    0.1148
    SETDIJ:  cpu time    0.0076: real time    0.0076
     EDDAV:  cpu time    3.3855: real time    3.4005
 BZINTS: Fermi energy:  5.873036; 32.000000 electrons
         Band energy:  24.761067;  BLOECHL correction:  0.000000
       DOS:  cpu time    0.0036: real time    0.0036
    CHARGE:  cpu time    0.2819: real time    0.2830
    MIXING:  cpu time    0.0075: real time    0.0075
    --------------------------------------------
      LOOP:  cpu time    3.8004: real time    3.8170

 eigenvalue-minimisations  :  2661
 total energy-change (2. order) : 0.2280026E+00  (-0.5488326E-01)
 number of electron      31.9999993 magnetization 
 augmentation part       -1.8318924 magnetization 

 Broyden mixing:
  rms(total) = 0.31100E-01    rms(broyden)= 0.31100E-01
  rms(prec ) = 0.53384E-01
  weight for this iteration     100.00

 eigenvalues of (default mixing * dielectric matrix)
  average eigenvalue GAMMA=   2.4697
  2.4697  2.4697

 Free energy of the ion-electron system (eV)
  ---------------------------------------------------
  alpha Z        PSCENC =        13.45656811
  Ewald energy   TEWEN  =      -914.25413255
  -Hartree energ DENC   =       -59.70478017
  -exchange      EXHF   =         0.00000000
  -V(xc)+E(xc)   XCENC  =       -71.89072901
  PAW double counting   =       301.01387566     -161.27882707
  entropy T*S    EENTRO =         0.00000000
  eigenvalues    EBANDS =        24.76106735
  atomic energy  EATOM  =       824.52596983
  Solvation  Ediel_sol  =         0.00000000
  ---------------------------------------------------
  free energy    TOTEN  =       -43.37098785 eV

  energy without entropy =      -43.37098785  energy(sigma->0) =      -43.37098785


--------------------------------------------------------------------------------------------------------




--------------------------------------- Iteration      1(   8)  ---------------------------------------


    POTLOK:  cpu time    0.1111: real time    0.1122
    SETDIJ:  cpu time    0.0075: real time    0.0075
     EDDAV:  cpu time    3.5520: real time    3.5682
 BZINTS: Fermi energy:  5.852881; 32.000000 electrons
         Band energy:  24.304773;  BLOECHL correction:  0.000000
       DOS:  cpu time    0.0036: real time    0.0036
    CHARGE:  cpu time    0.2800: real time    0.2809
    MIXING:  cpu time    0.0073: real time    0.0074
    --------------------------------------------
      LOOP:  cpu time    3.9615: real time    3.9798

 eigenvalue-minimisations  :  2837
 total energy-change (2. order) :-0.6150401E-02  (-0.2891653E-02)
 number of electron      31.9999993 magnetization 
 augmentation part       -1.8360692 magnetization 

 Broyden mixing:
  rms(total) = 0.61608E-02    rms(broyden)= 0.61605E-02
  rms(prec ) = 0.14124E-01
  weight for this iteration     100.00

 eigenvalues of (default mixing * dielectric matrix)
  average eigenvalue GAMMA=   2.1007
  1.5149  2.7622  2.0248

 Free energy of the ion-electron system (eV)
  ---------------------------------------------------
  alpha Z        PSCENC =        13.45656811
  Ewald energy   TEWEN  =      -914.25413255
  -Hartree energ DENC   =       -59.38847424
  -exchange      EXHF   =         0.00000000
  -V(xc)+E(xc)   XCENC  =       -71.88398387
  PAW double counting   =       297.00076362     -157.13862207
  entropy T*S    EENTRO =         0.00000000
  eigenvalues    EBANDS =        24.30477292
  atomic energy  EATOM  =       824.52596983
  Solvation  Ediel_sol  =         0.00000000
  ---------------------------------------------------
  free energy    TOTEN  =       -43.37713825 eV

  energy without entropy =      -43.37713825  energy(sigma->0) =      -43.37713825


--------------------------------------------------------------------------------------------------------




--------------------------------------- Iteration      1(   9)  ---------------------------------------


    POTLOK:  cpu time    0.1109: real time    0.1113
    SETDIJ:  cpu time    0.0075: real time    0.0075
     EDDAV:  cpu time    3.6939: real time    3.7100
 BZINTS: Fermi energy:  5.855368; 32.000000 electrons
         Band energy:  24.546599;  BLOECHL correction:  0.000000
       DOS:  cpu time    0.0036: real time    0.0036
    CHARGE:  cpu time    0.2829: real time    0.2838
    MIXING:  cpu time    0.0082: real time    0.0082
    --------------------------------------------
      LOOP:  cpu time    4.1070: real time    4.1244

 eigenvalue-minimisations  :  2997
 total energy-change (2. order) :-0.3422074E-03  (-0.1229826E-03)
 number of electron      31.9999993 magnetization 
 augmentation part       -1.8357505 magnetization 

 Broyden mixing:
  rms(total) = 0.42529E-02    rms(broyden)= 0.42528E-02
  rms(prec ) = 0.67222E-02
  weight for this iteration     100.00

 eigenvalues of (default mixing * dielectric matrix)
  average eigenvalue GAMMA=   2.2648
  1.0189  3.3102  2.6865  2.0435

 Free energy of the ion-electron system (eV)
  ---------------------------------------------------
  alpha Z        PSCENC =        13.45656811
  Ewald energy   TEWEN  =      -914.25413255
  -Hartree energ DENC   =       -59.65805214
  -exchange      EXHF   =         0.00000000
  -V(xc)+E(xc)   XCENC  =       -71.84294339
  PAW double counting   =       297.37854182     -157.53003158
  entropy T*S    EENTRO =         0.00000000
  eigenvalues    EBANDS =        24.54659945
  atomic energy  EATOM  =       824.52596983
  Solvation  Ediel_sol  =         0.00000000
  ---------------------------------------------------
  free energy    TOTEN  =       -43.37748046 eV

  energy without entropy =      -43.37748046  energy(sigma->0) =      -43.37748046


--------------------------------------------------------------------------------------------------------




--------------------------------------- Iteration      1(  10)  ---------------------------------------


    POTLOK:  cpu time    0.1159: real time    0.1166
    SETDIJ:  cpu time    0.0075: real time    0.0076
     EDDAV:  cpu time    3.4910: real time    3.5061
 BZINTS: Fermi energy:  5.852922; 32.000000 electrons
         Band energy:  24.532038;  BLOECHL correction:  0.000000
       DOS:  cpu time    0.0036: real time    0.0036
    CHARGE:  cpu time    0.2785: real time    0.2794
    MIXING:  cpu time    0.0074: real time    0.0075
    --------------------------------------------
      LOOP:  cpu time    3.9040: real time    3.9207

 eigenvalue-minimisations  :  2771
 total energy-change (2. order) :-0.1236923E-03  (-0.2793026E-04)
 number of electron      31.9999993 magnetization 
 augmentation part       -1.8358427 magnetization 

 Broyden mixing:
  rms(total) = 0.99082E-03    rms(broyden)= 0.99080E-03
  rms(prec ) = 0.17971E-02
  weight for this iteration     100.00

 eigenvalues of (default mixing * dielectric matrix)
  average eigenvalue GAMMA=   1.9672
  3.1735  2.5917  2.1468  1.0562  0.8679

 Free energy of the ion-electron system (eV)
  ---------------------------------------------------
  alpha Z        PSCENC =        13.45656811
  Ewald energy   TEWEN  =      -914.25413255
  -Hartree energ DENC   =       -59.63965862
  -exchange      EXHF   =         0.00000000
  -V(xc)+E(xc)   XCENC  =       -71.84974349
  PAW double counting   =       297.08756204     -157.23620769
  entropy T*S    EENTRO =         0.00000000
  eigenvalues    EBANDS =        24.53203822
  atomic energy  EATOM  =       824.52596983
  Solvation  Ediel_sol  =         0.00000000
  ---------------------------------------------------
  free energy    TOTEN  =       -43.37760415 eV

  energy without entropy =      -43.37760415  energy(sigma->0) =      -43.37760415


--------------------------------------------------------------------------------------------------------




--------------------------------------- Iteration      1(  11)  ---------------------------------------


    POTLOK:  cpu time    0.1110: real time    0.1115
    SETDIJ:  cpu time    0.0075: real time    0.0075
     EDDAV:  cpu time    3.5923: real time    3.6079
 BZINTS: Fermi energy:  5.852798; 32.000000 electrons
         Band energy:  24.556544;  BLOECHL correction:  0.000000
       DOS:  cpu time    0.0036: real time    0.0036
    CHARGE:  cpu time    0.2844: real time    0.2853
    MIXING:  cpu time    0.0078: real time    0.0078
    --------------------------------------------
      LOOP:  cpu time    4.0066: real time    4.0236

 eigenvalue-minimisations  :  2879
 total energy-change (2. order) :-0.1223508E-05  (-0.8852695E-06)
 number of electron      31.9999993 magnetization 
 augmentation part       -1.8357666 magnetization 

 Broyden mixing:
  rms(total) = 0.11944E-03    rms(broyden)= 0.11942E-03
  rms(prec ) = 0.16995E-03
  weight for this iteration     100.00

 eigenvalues of (default mixing * dielectric matrix)
  average eigenvalue GAMMA=   2.0801
  3.3338  2.7103  2.4046  2.0852  0.9732  0.9732

 Free energy of the ion-electron system (eV)
  ---------------------------------------------------
  alpha Z        PSCENC =        13.45656811
  Ewald energy   TEWEN  =      -914.25413255
  -Hartree energ DENC   =       -59.66535427
  -exchange      EXHF   =         0.00000000
  -V(xc)+E(xc)   XCENC  =       -71.84624166
  PAW double counting   =       297.18751146     -157.33847023
  entropy T*S    EENTRO =         0.00000000
  eigenvalues    EBANDS =        24.55654395
  atomic energy  EATOM  =       824.52596983
  Solvation  Ediel_sol  =         0.00000000
  ---------------------------------------------------
  free energy    TOTEN  =       -43.37760538 eV

  energy without entropy =      -43.37760538  energy(sigma->0) =      -43.37760538


--------------------------------------------------------------------------------------------------------




--------------------------------------- Iteration      1(  12)  ---------------------------------------


    POTLOK:  cpu time    0.1143: real time    0.1147
    SETDIJ:  cpu time    0.0076: real time    0.0079
     EDDAV:  cpu time    2.6854: real time    2.6968
 BZINTS: Fermi energy:  5.852462; 32.000000 electrons
         Band energy:  24.558222;  BLOECHL correction:  0.000000
       DOS:  cpu time    0.0036: real time    0.0036
    --------------------------------------------
      LOOP:  cpu time    2.8109: real time    2.8230

 eigenvalue-minimisations  :  1871
 total energy-change (2. order) :-0.9222174E-07  (-0.6162558E-07)
 number of electron      31.9999993 magnetization 
 augmentation part       -1.8357666 magnetization 

 Free energy of the ion-electron system (eV)
  ---------------------------------------------------
  alpha Z        PSCENC =        13.45656811
  Ewald energy   TEWEN  =      -914.25413255
  -Hartree energ DENC   =       -59.66737435
  -exchange      EXHF   =         0.00000000
  -V(xc)+E(xc)   XCENC  =       -71.84627141
  PAW double counting   =       297.19111762     -157.34170517
  entropy T*S    EENTRO =         0.00000000
  eigenvalues    EBANDS =        24.55822246
  atomic energy  EATOM  =       824.52596983
  Solvation  Ediel_sol  =         0.00000000
  ---------------------------------------------------
  free energy    TOTEN  =       -43.37760547 eV

  energy without entropy =      -43.37760547  energy(sigma->0) =      -43.37760547


--------------------------------------------------------------------------------------------------------




 average (electrostatic) potential at core
  the test charge radii are     0.9892
  (the norm of the test charge is              1.0000)
       1 -83.2438       2 -83.2438       3 -83.2438       4 -83.2438       5 -83.2438
       6 -83.2438       7 -83.2438       8 -83.2438
 
 
 
 E-fermi :   5.8525     XC(G=0):  -9.4107     alpha+bet :-11.9845


 k-point     1 :       0.0000    0.0000    0.0000
  band No.  band energies     occupation 
      1      -6.1304      2.00000
      2      -1.9847      2.00000
      3      -1.9847      2.00000
      4      -1.9847      2.00000
      5      -1.9847      2.00000
      6      -1.9847      2.00000
      7      -1.9847      2.00000
      8       2.9797      2.00000
      9       2.9797      2.00000
     10       2.9797      2.00000
     11       2.9797      2.00000
     12       2.9797      2.00000
     13       2.9797      2.00000
     14       5.8297      2.00000
     15       5.8297      2.00000
     16       5.8297      2.00000
     17       6.5401      0.00000
     18       6.5401      0.00000
     19       6.5401      0.00000
     20       6.5401      0.00000
     21       6.5401      0.00000

 k-point     2 :       0.1000    0.0000    0.0000
  band No.  band energies     occupation 
      1      -6.0866      2.00000
      2      -2.7312      2.00000
      3      -1.9703      2.00000
      4      -1.9703      2.00000
      5      -1.9703      2.00000
      6      -1.9703      2.00000
      7      -1.1861      2.00000
      8       2.8550      2.00000
      9       2.8550      2.00000
     10       2.8550      2.00000
     11       2.8550      2.00000
     12       3.0192      2.00000
     13       3.0192      2.00000
     14       5.5505      2.00000
     15       5.6541      2.00000
     16       5.6541      2.00000
     17       6.4201      0.00000
     18       6.7753      0.00000
     19       6.7753      0.00000
     20       6.7753      0.00000
     21       6.7758      0.00000

 k-point     3 :       0.2000    0.0000    0.0000
  band No.  band energies     occupation 
      1      -5.9555      2.00000
      2      -3.4171      2.00000
      3      -1.9315      2.00000
      4      -1.9315      2.00000
      5      -1.9315      2.00000
      6      -1.9315      2.00000
      7      -0.3453      2.00000
      8       2.5702      2.00000
      9       2.5702      2.00000
     10       2.5702      2.00000
     11       2.5702      2.00000
     12       3.1372      2.00000
     13       3.1372      2.00000
     14       4.8933      2.00000
     15       5.2537      2.00000
     16       5.2537      2.00000
     17       6.4113      0.00000
     18       7.1412      0.00000
     19       7.3938      0.00000
     20       7.3938      0.00000
     21       7.3938      0.00000

 k-point     4 :       0.3000    0.0000    0.0000
  band No.  band energies     occupation 
      1      -5.7378      2.00000
      2      -4.0354      2.00000
      3      -1.8810      2.00000
      4      -1.8810      2.00000
      5      -1.8810      2.00000
      6      -1.8810      2.00000
      7       0.5264      2.00000
      8       2.2712      2.00000
      9       2.2712      2.00000
     10       2.2712      2.00000
     11       2.2712      2.00000
     12       3.3323      2.00000
     13       3.3323      2.00000
     14       4.0807      2.00000
     15       4.7911      2.00000
     16       4.7911      2.00000
     17       6.5055      0.00000
     18       7.6312      0.00000
     19       7.6606      0.00000
     20       8.2559      0.00000
     21       8.2559      0.00000

 k-point     5 :       0.4000    0.0000    0.0000
  band No.  band energies     occupation 
      1      -5.4346      2.00000
      2      -4.5805      2.00000
      3      -1.8378      2.00000
      4      -1.8378      2.00000
      5      -1.8378      2.00000
      6      -1.8378      2.00000
      7       1.4173      2.00000
      8       2.0564      2.00000
      9       2.0564      2.00000
     10       2.0564      2.00000
     11       2.0564      2.00000
     12       3.2093      2.00000
     13       3.6019      2.00000
     14       3.6019      2.00000
     15       4.3429      2.00000
     16       4.3429      2.00000
     17       6.6931      0.00000
     18       7.2936      0.00000
     19       8.2452      0.00000
     20       9.2624      0.00000
     21       9.2624      0.00000

 k-point     6 :       0.5000    0.0000    0.0000
  band No.  band energies     occupation 
      1      -5.0480      2.00000
      2      -5.0480      2.00000
      3      -1.8207      2.00000
      4      -1.8207      2.00000
      5      -1.8207      2.00000
      6      -1.8207      2.00000
      7       1.9789      2.00000
      8       1.9789      2.00000
      9       1.9789      2.00000
     10       1.9789      2.00000
     11       2.3157      2.00000
     12       2.3157      2.00000
     13       3.9414      2.00000
     14       3.9414      2.00000
     15       3.9414      2.00000
     16       3.9414      2.00000
     17       6.9616      0.00000
     18       6.9616      0.00000
     19       8.9644      0.00000
     20       8.9644      0.00000
     21      10.0986      0.00000

 k-point     7 :       0.1000    0.1000    0.0000
  band No.  band energies     occupation 
      1      -6.0430      2.00000
      2      -2.7075      2.00000
      3      -2.7075      2.00000
      4      -2.0260      2.00000
      5      -1.8900      2.00000
      6      -1.1855      2.00000
      7      -1.1855      2.00000
      8       2.4985      2.00000
      9       2.8746      2.00000
     10       2.8746      2.00000
     11       2.9208      2.00000
     12       2.9208      2.00000
     13       3.0497      2.00000
     14       5.0930      2.00000
     15       5.4784      2.00000
     16       5.7901      2.00000
     17       6.6211      0.00000
     18       6.6663      0.00000
     19       6.6663      0.00000
     20       6.9999      0.00000
     21       6.9999      0.00000

 k-point     8 :       0.2000    0.1000    0.0000
  band No.  band energies     occupation 
      1      -5.9122      2.00000
      2      -3.3870      2.00000
      3      -2.6394      2.00000
      4      -2.0692      2.00000
      5      -1.7812      2.00000
      6      -1.1895      2.00000
      7      -0.3654      2.00000
      8       2.1270      2.00000
      9       2.5428      2.00000
     10       2.7005      2.00000
     11       2.9780      2.00000
     12       2.9952      2.00000
     13       3.0732      2.00000
     14       4.4436      2.00000
     15       5.0765      2.00000
     16       5.5486      2.00000
     17       6.6653      0.00000
     18       6.9345      0.00000
     19       7.3041      0.00000
     20       7.3461      0.00000
     21       7.5920      0.00000

 k-point     9 :       0.3000    0.1000    0.0000
  band No.  band energies     occupation 
      1      -5.6952      2.00000
      2      -4.0008      2.00000
      3      -2.5361      2.00000
      4      -2.1181      2.00000
      5      -1.6486      2.00000
      6      -1.2128      2.00000
      7       0.4754      2.00000
      8       1.8406      2.00000
      9       2.1804      2.00000
     10       2.4889      2.00000
     11       2.7812      2.00000
     12       3.1630      2.00000
     13       3.3132      2.00000
     14       3.7243      2.00000
     15       4.6118      2.00000
     16       5.0679      2.00000
     17       6.7642      0.00000
     18       7.6247      0.00000
     19       7.8181      0.00000
     20       7.9072      0.00000
     21       8.1815      0.00000

 k-point    10 :       0.4000    0.1000    0.0000
  band No.  band energies     occupation 
      1      -5.3932      2.00000
      2      -4.5428      2.00000
      3      -2.4131      2.00000
      4      -2.1898      2.00000
      5      -1.5058      2.00000
      6      -1.2721      2.00000
      7       1.3205      2.00000
      8       1.6951      2.00000
      9       1.8849      2.00000
     10       2.3761      2.00000
     11       2.5510      2.00000
     12       2.9578      2.00000
     13       3.4260      2.00000
     14       3.6407      2.00000
     15       4.1626      2.00000
     16       4.5399      2.00000
     17       6.9535      0.00000
     18       7.5478      0.00000
     19       8.4131      0.00000
     20       8.5486      0.00000
     21       9.2041      0.00000

 k-point    11 :       0.5000    0.1000    0.0000
  band No.  band energies     occupation 
      1      -5.0081      2.00000
      2      -5.0081      2.00000
      3      -2.2912      2.00000
      4      -2.2912      2.00000
      5      -1.3733      2.00000
      6      -1.3733      2.00000
      7       1.7125      2.00000
      8       1.7125      2.00000
      9       2.1529      2.00000
     10       2.1529      2.00000
     11       2.3996      2.00000
     12       2.3996      2.00000
     13       3.7621      2.00000
     14       3.7621      2.00000
     15       4.0532      2.00000
     16       4.0532      2.00000
     17       7.2207      0.00000
     18       7.2207      0.00000
     19       9.1101      0.00000
     20       9.1101      0.00000
     21       9.5679      0.00000

 k-point    12 :       0.2000    0.2000    0.0000
  band No.  band energies     occupation 
      1      -5.7828      2.00000
      2      -3.2987      2.00000
      3      -3.2987      2.00000
      4      -2.2117      2.00000
      5      -1.6066      2.00000
      6      -0.4309      2.00000
      7      -0.4309      2.00000
      8       1.7673      2.00000
      9       2.6130      2.00000
     10       2.6130      2.00000
     11       2.9393      2.00000
     12       2.9393      2.00000
     13       3.2559      2.00000
     14       3.8015      2.00000
     15       4.6703      2.00000
     16       5.6534      2.00000
     17       6.8599      0.00000
     18       7.3157      0.00000
     19       7.3157      0.00000
     20       7.9056      0.00000
     21       7.9056      0.00000

 k-point    13 :       0.3000    0.2000    0.0000
  band No.  band energies     occupation 
      1      -5.5679      2.00000
      2      -3.8986      2.00000
      3      -3.1585      2.00000
      4      -2.3753      2.00000
      5      -1.4041      2.00000
      6      -0.5518      2.00000
      7       0.3247      2.00000
      8       1.5483      2.00000
      9       2.2060      2.00000
     10       2.7752      2.00000
     11       2.8396      2.00000
     12       3.1343      2.00000
     13       3.2677      2.00000
     14       3.2896      2.00000
     15       4.2013      2.00000
     16       5.3719      2.00000
     17       7.2448      0.00000
     18       7.4206      0.00000
     19       8.2006      0.00000
     20       8.3394      0.00000
     21       8.5153      0.00000

 k-point    14 :       0.4000    0.2000    0.0000
  band No.  band energies     occupation 
      1      -5.2693      2.00000
      2      -4.4307      2.00000
      3      -2.9777      2.00000
      4      -2.5656      2.00000
      5      -1.1791      2.00000
      6      -0.7288      2.00000
      7       1.0610      2.00000
      8       1.4947      2.00000
      9       1.8521      2.00000
     10       2.4587      2.00000
     11       2.8391      2.00000
     12       3.0238      2.00000
     13       3.1183      2.00000
     14       3.7460      2.00000
     15       3.7503      2.00000
     16       4.8598      2.00000
     17       7.6090      0.00000
     18       7.9957      0.00000
     19       8.1803      0.00000
     20       8.8916      0.00000
     21       9.2268      0.00000

 k-point    15 :       0.5000    0.2000    0.0000
  band No.  band energies     occupation 
      1      -4.8891      2.00000
      2      -4.8891      2.00000
      3      -2.7731      2.00000
      4      -2.7731      2.00000
      5      -0.9464      2.00000
      6      -0.9464      2.00000
      7       1.6034      2.00000
      8       1.6034      2.00000
      9       1.7709      2.00000
     10       1.7709      2.00000
     11       2.9456      2.00000
     12       2.9456      2.00000
     13       3.3521      2.00000
     14       3.3521      2.00000
     15       4.2861      2.00000
     16       4.2861      2.00000
     17       7.8682      0.00000
     18       7.8682      0.00000
     19       8.9626      0.00000
     20       8.9626      0.00000
     21       9.5239      0.00000

 k-point    16 :       0.3000    0.3000    0.0000
  band No.  band energies     occupation 
      1      -5.3570      2.00000
      2      -3.7328      2.00000
      3      -3.7328      2.00000
      4      -2.6575      2.00000
      5      -1.1361      2.00000
      6       0.0876      2.00000
      7       0.0876      2.00000
      8       1.4204      2.00000
      9       2.3382      2.00000
     10       2.3382      2.00000
     11       2.5182      2.00000
     12       3.3173      2.00000
     13       3.3173      2.00000
     14       3.5860      2.00000
     15       3.7289      2.00000
     16       5.3860      2.00000
     17       7.2430      0.00000
     18       8.3053      0.00000
     19       8.3053      0.00000
     20       8.8968      0.00000
     21       9.1086      0.00000

 k-point    17 :       0.4000    0.3000    0.0000
  band No.  band energies     occupation 
      1      -5.0644      2.00000
      2      -4.2471      2.00000
      3      -3.5113      2.00000
      4      -2.9544      2.00000
      5      -0.8414      2.00000
      6      -0.2073      2.00000
      7       0.7034      2.00000
      8       1.4566      2.00000
      9       1.9074      2.00000
     10       1.9439      2.00000
     11       2.5675      2.00000
     12       3.2780      2.00000
     13       3.4155      2.00000
     14       3.6542      2.00000
     15       3.8927      2.00000
     16       5.0539      2.00000
     17       7.6862      0.00000
     18       8.4858      0.00000
     19       9.0113      0.00000
     20       9.0510      0.00000
     21       9.3271      0.00000

 k-point    18 :       0.5000    0.3000    0.0000
  band No.  band energies     occupation 
      1      -4.6930      2.00000
      2      -4.6930      2.00000
      3      -3.2460      2.00000
      4      -3.2460      2.00000
      5      -0.5262      2.00000
      6      -0.5262      2.00000
      7       1.3054      2.00000
      8       1.3054      2.00000
      9       1.6395      2.00000
     10       1.6395      2.00000
     11       2.8847      2.00000
     12       2.8847      2.00000
     13       3.5545      2.00000
     14       3.5545      2.00000
     15       4.5054      2.00000
     16       4.5054      2.00000
     17       8.4787      0.00000
     18       8.4787      0.00000
     19       8.7285      0.00000
     20       8.7285      0.00000
     21       9.4515      0.00000

 k-point    19 :       0.4000    0.4000    0.0000
  band No.  band energies     occupation 
      1      -4.7810      2.00000
      2      -3.9972      2.00000
      3      -3.9972      2.00000
      4      -3.3360      2.00000
      5      -0.4815      2.00000
      6       0.3049      2.00000
      7       0.3049      2.00000
      8       1.3571      2.00000
      9       1.5665      2.00000
     10       2.1465      2.00000
     11       2.1465      2.00000
     12       2.8308      2.00000
     13       4.0158      2.00000
     14       4.0418      2.00000
     15       4.0418      2.00000
     16       4.9854      2.00000
     17       7.7397      0.00000
     18       8.7270      0.00000
     19       9.0140      0.00000
     20       9.0140      0.00000
     21       9.4920      0.00000

 k-point    20 :       0.5000    0.4000    0.0000
  band No.  band energies     occupation 
      1      -4.4233      2.00000
      2      -4.4233      2.00000
      3      -3.6893      2.00000
      4      -3.6893      2.00000
      5      -0.0969      2.00000
      6      -0.0969      2.00000
      7       0.8230      2.00000
      8       0.8230      2.00000
      9       1.8039      2.00000
     10       1.8039      2.00000
     11       2.4469      2.00000
     12       2.4469      2.00000
     13       4.1212      2.00000
     14       4.1212      2.00000
     15       4.6133      2.00000
     16       4.6133      2.00000
     17       8.2145      0.00000
     18       8.2145      0.00000
     19       8.7309      0.00000
     20       8.7309      0.00000
     21       9.7053      0.00000

 k-point    21 :       0.5000    0.5000    0.0000
  band No.  band energies     occupation 
      1      -4.0859      2.00000
      2      -4.0859      2.00000
      3      -4.0859      2.00000
      4      -4.0859      2.00000
      5       0.3523      2.00000
      6       0.3523      2.00000
      7       0.3523      2.00000
      8       0.3523      2.00000
      9       2.0790      2.00000
     10       2.0790      2.00000
     11       2.0790      2.00000
     12       2.0790      2.00000
     13       4.5035      2.00000
     14       4.5035      2.00000
     15       4.5035      2.00000
     16       4.5035      2.00000
     17       8.2822      0.00000
     18       8.2822      0.00000
     19       8.2822      0.00000
     20       8.2822      0.00000
     21      10.6234      0.00000

 k-point    22 :       0.1000    0.1000    0.1000
  band No.  band energies     occupation 
      1      -5.9994      2.00000
      2      -2.6878      2.00000
      3      -2.6878      2.00000
      4      -2.6878      2.00000
      5      -1.1860      2.00000
      6      -1.1860      2.00000
      7      -1.1860      2.00000
      8       2.5509      2.00000
      9       2.5509      2.00000
     10       2.5509      2.00000
     11       3.0886      2.00000
     12       3.0886      2.00000
     13       3.0886      2.00000
     14       4.6858      2.00000
     15       5.6315      2.00000
     16       5.6315      2.00000
     17       6.6462      0.00000
     18       6.6462      0.00000
     19       6.6462      0.00000
     20       7.4045      0.00000
     21       7.4045      0.00000

 k-point    23 :       0.2000    0.1000    0.1000
  band No.  band energies     occupation 
      1      -5.8692      2.00000
      2      -3.3588      2.00000
      3      -2.6336      2.00000
      4      -2.6336      2.00000
      5      -1.1909      2.00000
      6      -1.1909      2.00000
      7      -0.3918      2.00000
      8       2.1916      2.00000
      9       2.1916      2.00000
     10       2.7090      2.00000
     11       3.0407      2.00000
     12       3.0407      2.00000
     13       3.2050      2.00000
     14       4.0535      2.00000
     15       5.2595      2.00000
     16       5.4746      2.00000
     17       6.7291      0.00000
     18       6.9754      0.00000
     19       6.9754      0.00000
     20       7.6629      0.00000
     21       8.1742      0.00000

 k-point    24 :       0.3000    0.1000    0.1000
  band No.  band energies     occupation 
      1      -5.6529      2.00000
      2      -3.9674      2.00000
      3      -2.5601      2.00000
      4      -2.5601      2.00000
      5      -1.2057      2.00000
      6      -1.2057      2.00000
      7       0.4113      2.00000
      8       1.9107      2.00000
      9       1.9107      2.00000
     10       2.8486      2.00000
     11       2.8486      2.00000
     12       2.9756      2.00000
     13       3.3808      2.00000
     14       3.3972      2.00000
     15       4.8190      2.00000
     16       4.9905      2.00000
     17       6.8809      0.00000
     18       7.6671      0.00000
     19       7.6671      0.00000
     20       8.0756      0.00000
     21       8.0760      0.00000

 k-point    25 :       0.4000    0.1000    0.1000
  band No.  band energies     occupation 
      1      -5.3520      2.00000
      2      -4.5058      2.00000
      3      -2.4937      2.00000
      4      -2.4937      2.00000
      5      -1.2272      2.00000
      6      -1.2272      2.00000
      7       1.2018      2.00000
      8       1.7460      2.00000
      9       1.7460      2.00000
     10       2.6627      2.00000
     11       2.6627      2.00000
     12       2.6861      2.00000
     13       3.3527      2.00000
     14       3.6622      2.00000
     15       4.3859      2.00000
     16       4.4017      2.00000
     17       7.1038      0.00000
     18       7.7259      0.00000
     19       8.5888      0.00000
     20       8.5888      0.00000
     21       8.6271      0.00000

 k-point    26 :       0.5000    0.1000    0.1000
  band No.  band energies     occupation 
      1      -4.9687      2.00000
      2      -4.9687      2.00000
      3      -2.4663      2.00000
      4      -2.4663      2.00000
      5      -1.2382      2.00000
      6      -1.2382      2.00000
      7       1.6943      2.00000
      8       1.6943      2.00000
      9       1.9621      2.00000
     10       1.9621      2.00000
     11       2.5879      2.00000
     12       2.5879      2.00000
     13       3.8359      2.00000
     14       3.8359      2.00000
     15       3.9948      2.00000
     16       3.9948      2.00000
     17       7.3910      0.00000
     18       7.3910      0.00000
     19       9.2861      0.00000
     20       9.2863      0.00000
     21       9.5006      0.00000

[...]
      8       1.0597      2.00000
      9       2.1704      2.00000
     10       2.4634      2.00000
     11       3.1410      2.00000
     12       3.6849      2.00000
     13       3.7983      2.00000
     14       3.9789      2.00000
     15       4.1819      2.00000
     16       4.8889      2.00000
     17       7.8620      0.00000
     18       7.9686      0.00000
     19       8.2212      0.00000
     20       8.3794      0.00000
     21       9.1484      0.00000

 k-point    43 :       0.5000    0.3000    0.2000
  band No.  band energies     occupation 
      1      -4.5530      2.00000
      2      -4.5530      2.00000
      3      -3.3205      2.00000
      4      -3.3205      2.00000
      5      -0.8626      2.00000
      6      -0.8626      2.00000
      7       0.5533      2.00000
      8       0.5533      2.00000
      9       2.3259      2.00000
     10       2.3259      2.00000
     11       3.7014      2.00000
     12       3.7014      2.00000
     13       3.7465      2.00000
     14       3.7465      2.00000
     15       4.4170      2.00000
     16       4.4170      2.00000
     17       8.2401      0.00000
     18       8.2401      0.00000
     19       8.6191      0.00000
     20       8.6191      0.00000
     21       9.3094      0.00000

 k-point    44 :       0.4000    0.4000    0.2000
  band No.  band energies     occupation 
      1      -4.6404      2.00000
      2      -3.9104      2.00000
      3      -3.9104      2.00000
      4      -3.4086      2.00000
      5      -0.8694      2.00000
      6      -0.3140      2.00000
      7      -0.3140      2.00000
      8       0.5402      2.00000
      9       2.3990      2.00000
     10       2.9311      2.00000
     11       2.9311      2.00000
     12       3.7864      2.00000
     13       4.1176      2.00000
     14       4.1344      2.00000
     15       4.1344      2.00000
     16       4.9204      2.00000
     17       7.8893      0.00000
     18       8.2522      0.00000
     19       8.5876      0.00000
     20       8.5876      0.00000
     21       9.1165      0.00000

 k-point    45 :       0.5000    0.4000    0.2000
  band No.  band energies     occupation 
      1      -4.3028      2.00000
      2      -4.3028      2.00000
      3      -3.6603      2.00000
      4      -3.6603      2.00000
      5      -0.6464      2.00000
      6      -0.6464      2.00000
      7       0.0800      2.00000
      8       0.0800      2.00000
      9       2.6640      2.00000
     10       2.6640      2.00000
     11       3.3688      2.00000
     12       3.3688      2.00000
     13       4.2146      2.00000
     14       4.2146      2.00000
     15       4.6094      2.00000
     16       4.6094      2.00000
     17       8.3027      0.00000
     18       8.3027      0.00000
     19       8.4559      0.00000
     20       8.4559      0.00000
     21       9.1661      0.00000

 k-point    46 :       0.5000    0.5000    0.2000
  band No.  band energies     occupation 
      1      -3.9987      2.00000
      2      -3.9987      2.00000
      3      -3.9987      2.00000
      4      -3.9987      2.00000
      5      -0.3264      2.00000
      6      -0.3264      2.00000
      7      -0.3264      2.00000
      8      -0.3264      2.00000
      9       3.0134      2.00000
     10       3.0134      2.00000
     11       3.0134      2.00000
     12       3.0134      2.00000
     13       4.5459      2.00000
     14       4.5459      2.00000
     15       4.5459      2.00000
     16       4.5459      2.00000
     17       8.2660      0.00000
     18       8.2660      0.00000
     19       8.2660      0.00000
     20       8.2660      0.00000
     21       9.7308      0.00000

 k-point    47 :       0.3000    0.3000    0.3000
  band No.  band energies     occupation 
      1      -4.9971      2.00000
      2      -3.5616      2.00000
      3      -3.5616      2.00000
      4      -3.5616      2.00000
      5      -0.6609      2.00000
      6      -0.6609      2.00000
      7      -0.6609      2.00000
      8       1.0369      2.00000
      9       2.6978      2.00000
     10       2.6978      2.00000
     11       2.6978      2.00000
     12       3.8792      2.00000
     13       3.8792      2.00000
     14       3.8792      2.00000
     15       4.9163      2.00000
     16       4.9163      2.00000
     17       7.6715      0.00000
     18       7.6715      0.00000
     19       7.6715      0.00000
     20       7.6934      0.00000
     21       9.3652      0.00000

 k-point    48 :       0.4000    0.3000    0.3000
  band No.  band energies     occupation 
      1      -4.7244      2.00000
      2      -3.9901      2.00000
      3      -3.4835      2.00000
      4      -3.4835      2.00000
      5      -0.9021      2.00000
      6      -0.9021      2.00000
      7      -0.3444      2.00000
      8       0.5087      2.00000
      9       2.8210      2.00000
     10       2.8210      2.00000
     11       3.4252      2.00000
     12       3.9801      2.00000
     13       3.9801      2.00000
     14       4.0946      2.00000
     15       4.6357      2.00000
     16       4.7250      2.00000
     17       7.8252      0.00000
     18       7.9373      0.00000
     19       8.0516      0.00000
     20       8.0516      0.00000
     21       9.1583      0.00000

 k-point    49 :       0.5000    0.3000    0.3000
  band No.  band energies     occupation 
      1      -4.3848      2.00000
      2      -4.3848      2.00000
      3      -3.4511      2.00000
      4      -3.4511      2.00000
      5      -0.9920      2.00000
      6      -0.9920      2.00000
      7       0.0461      2.00000
      8       0.0461      2.00000
      9       2.8715      2.00000
     10       2.8715      2.00000
     11       3.9965      2.00000
     12       3.9965      2.00000
     13       4.1458      2.00000
     14       4.1458      2.00000
     15       4.3529      2.00000
     16       4.3529      2.00000
     17       8.0687      0.00000
     18       8.0687      0.00000
     19       8.6179      0.00000
     20       8.6179      0.00000
     21       8.9290      0.00000

 k-point    50 :       0.4000    0.4000    0.3000
  band No.  band energies     occupation 
      1      -4.4714      2.00000
      2      -3.8231      2.00000
      3      -3.8231      2.00000
      4      -3.5373      2.00000
      5      -1.0202      2.00000
      6      -0.7110      2.00000
      7      -0.7110      2.00000
      8       0.0144      2.00000
      9       3.1193      2.00000
     10       3.4792      2.00000
     11       3.4792      2.00000
     12       4.2363      2.00000
     13       4.2440      2.00000
     14       4.2440      2.00000
     15       4.3943      2.00000
     16       4.8317      2.00000
     17       7.7422      0.00000
     18       8.0174      0.00000
     19       8.1936      0.00000
     20       8.1936      0.00000
     21       9.1736      0.00000

 k-point    51 :       0.5000    0.4000    0.3000
  band No.  band energies     occupation 
      1      -4.1641      2.00000
      2      -4.1641      2.00000
      3      -3.6587      2.00000
      4      -3.6587      2.00000
      5      -0.9514      2.00000
      6      -0.9514      2.00000
      7      -0.3985      2.00000
      8      -0.3985      2.00000
      9       3.3505      2.00000
     10       3.3505      2.00000
     11       4.0164      2.00000
     12       4.0164      2.00000
     13       4.3237      2.00000
     14       4.3237      2.00000
     15       4.5859      2.00000
     16       4.5859      2.00000
     17       8.0109      0.00000
     18       8.0109      0.00000
     19       8.2645      0.00000
     20       8.2645      0.00000
     21       9.0961      0.00000

 k-point    52 :       0.5000    0.5000    0.3000
  band No.  band energies     occupation 
      1      -3.9111      2.00000
      2      -3.9111      2.00000
      3      -3.9111      2.00000
      4      -3.9111      2.00000
      5      -0.7426      2.00000
      6      -0.7426      2.00000
      7      -0.7426      2.00000
      8      -0.7426      2.00000
      9       3.7268      2.00000
     10       3.7268      2.00000
     11       3.7268      2.00000
     12       3.7268      2.00000
     13       4.5857      2.00000
     14       4.5857      2.00000
     15       4.5857      2.00000
     16       4.5857      2.00000
     17       8.0465      0.00000
     18       8.0465      0.00000
     19       8.0465      0.00000
     20       8.0465      0.00000
     21       9.2769      0.00000

 k-point    53 :       0.4000    0.4000    0.4000
  band No.  band energies     occupation 
      1      -4.2498      2.00000
      2      -3.7437      2.00000
      3      -3.7437      2.00000
      4      -3.7437      2.00000
      5      -0.9915      2.00000
      6      -0.9915      2.00000
      7      -0.9915      2.00000
      8      -0.4396      2.00000
      9       3.8553      2.00000
     10       3.8553      2.00000
     11       3.8553      2.00000
     12       4.3859      2.00000
     13       4.3859      2.00000
     14       4.3859      2.00000
     15       4.7041      2.00000
     16       4.7041      2.00000
     17       7.4541      0.00000
     18       7.9836      0.00000
     19       7.9836      0.00000
     20       7.9836      0.00000
     21       9.1464      0.00000

 k-point    54 :       0.5000    0.4000    0.4000
  band No.  band energies     occupation 
      1      -3.9961      2.00000
      2      -3.9961      2.00000
      3      -3.7108      2.00000
      4      -3.7108      2.00000
      5      -1.0934      2.00000
      6      -1.0934      2.00000
      7      -0.7865      2.00000
      8      -0.7865      2.00000
      9       3.9731      2.00000
     10       3.9731      2.00000
     11       4.4685      2.00000
     12       4.4685      2.00000
     13       4.4688      2.00000
     14       4.4688      2.00000
     15       4.5489      2.00000
     16       4.5489      2.00000
     17       7.6403      0.00000
     18       7.6403      0.00000
     19       7.9348      0.00000
     20       7.9348      0.00000
     21       9.0502      0.00000

 k-point    55 :       0.5000    0.5000    0.4000
  band No.  band energies     occupation 
      1      -3.8313      2.00000
      2      -3.8313      2.00000
      3      -3.8313      2.00000
      4      -3.8313      2.00000
      5      -1.0328      2.00000
      6      -1.0328      2.00000
      7      -1.0328      2.00000
      8      -1.0328      2.00000
      9       4.3529      2.00000
     10       4.3529      2.00000
     11       4.3529      2.00000
     12       4.3529      2.00000
     13       4.6193      2.00000
     14       4.6193      2.00000
     15       4.6193      2.00000
     16       4.6193      2.00000
     17       7.6112      0.00000
     18       7.6112      0.00000
     19       7.6112      0.00000
     20       7.6112      0.00000
     21       9.1700      0.00000

 k-point    56 :       0.5000    0.5000    0.5000
  band No.  band energies     occupation 
      1      -3.7982      2.00000
      2      -3.7982      2.00000
      3      -3.7982      2.00000
      4      -3.7982      2.00000
      5      -1.1378      2.00000
      6      -1.1378      2.00000
      7      -1.1378      2.00000
      8      -1.1378      2.00000
      9       4.6325      2.00000
     10       4.6325      2.00000
     11       4.6325      2.00000
     12       4.6325      2.00000
     13       4.6325      2.00000
     14       4.6325      2.00000
     15       4.6325      2.00000
     16       4.6325      2.00000
     17       7.3720      0.00000
     18       7.3720      0.00000
     19       7.3720      0.00000
     20       7.3720      0.00000
     21       9.1710      0.00000


--------------------------------------------------------------------------------------------------------


 soft charge-density along one line, spin component           1
         0         1         2         3         4         5         6         7         8         9
 total charge-density along one line
 
 pseudopotential strength for first ion, spin component:           1
 18.413  -0.001   0.000   0.000  -0.000  -0.000  -0.000   0.000
 -0.001   0.006  -0.000  -0.000   0.000   0.000   0.000  -0.000
  0.000  -0.000   4.178  -0.000  -0.000  -0.005   0.000   0.000
  0.000  -0.000  -0.000   4.178   0.000   0.000  -0.005  -0.000
 -0.000   0.000  -0.000   0.000   4.178   0.000  -0.000  -0.005
 -0.000   0.000  -0.005   0.000   0.000   0.005  -0.000  -0.000
 -0.000   0.000   0.000  -0.005  -0.000  -0.000   0.005   0.000
  0.000  -0.000   0.000  -0.000  -0.005  -0.000   0.000   0.005
 total augmentation occupancy for first ion, spin component:           1
  1.492  -0.788  -0.000  -0.000  -0.000   0.000  -0.000   0.000
 -0.788   0.787   0.000  -0.000  -0.000   0.000  -0.000  -0.000
  0.000   0.000   1.031   0.000  -0.000  -0.563   0.000   0.000
 -0.000   0.000  -0.000   1.031  -0.000  -0.000  -0.563   0.000
  0.000  -0.000   0.000  -0.000   1.031  -0.000  -0.000  -0.563
  0.000  -0.000  -0.563   0.000   0.000   0.364   0.000  -0.000
 -0.000  -0.000   0.000  -0.563  -0.000   0.000   0.364  -0.000
  0.000   0.000   0.000   0.000  -0.563   0.000   0.000   0.364


------------------------ aborting loop because EDIFF is reached ----------------------------------------


    CHARGE:  cpu time    0.2810: real time    0.2819
    FORLOC:  cpu time    0.0136: real time    0.0140
    FORNL :  cpu time    0.8412: real time    0.8430
    STRESS:  cpu time    1.3744: real time    1.3791
    FORCOR:  cpu time    0.1237: real time    0.1240
    FORHAR:  cpu time    0.0382: real time    0.0383
    MIXING:  cpu time    0.0062: real time    0.0062
    OFIELD:  cpu time    0.0000: real time    0.0000

  FORCE on cell =-STRESS in cart. coord.  units (eV):
  Direction    XX          YY          ZZ          XY          YZ          ZX
  --------------------------------------------------------------------------------------
  Alpha Z    13.45657    13.45657    13.45657
  Ewald    -304.75190  -304.75190  -304.75190     0.00000     0.00000    -0.00000
  Hartree    19.88837    19.88837    19.88837    -0.00000    -0.00000    -0.00000
  E(xc)    -101.47599  -101.47599  -101.47599     0.00000     0.00000    -0.00000
  Local    -116.89043  -116.89043  -116.89043     0.00000    -0.00000    -0.00000
  n-local   311.37834   314.78179   308.11443    -2.77521    -2.30158    -1.37274
  augment   -46.62352   -46.62352   -46.62352     0.00000     0.00000     0.00000
  Kinetic   219.56819   231.46318   229.79176    -3.46457    -5.23937    -2.31507
  Fock        0.00000     0.00000     0.00000     0.00000     0.00000     0.00000
  -------------------------------------------------------------------------------------
  Total       1.96900     1.96900     1.96900     0.00000     0.00000     0.00000
  in kB      19.70410    19.70410    19.70410     0.00000     0.00000     0.00000
  external pressure =       19.70 kB  Pullay stress =        0.00 kB


 VOLUME and BASIS-vectors are now :
 -----------------------------------------------------------------------------
  energy-cutoff  :      400.00
  volume of cell :      160.10
      direct lattice vectors                 reciprocal lattice vectors
     5.430000000  0.000000000  0.000000000     0.184162063  0.000000000  0.000000000
     0.000000000  5.430000000  0.000000000     0.000000000  0.184162063  0.000000000
     0.000000000  0.000000000  5.430000000     0.000000000  0.000000000  0.184162063

  length of vectors
     5.430000000  5.430000000  5.430000000     0.184162063  0.184162063  0.184162063


 FORCES acting on ions
    electron-ion (+dipol)            ewald-force                    non-local-force                 convergence-correction
 -----------------------------------------------------------------------------------------------
   -.423E-15 -.261E-14 -.741E-14   -.711E-14 -.355E-14 0.355E-14   0.187E-16 -.104E-16 -.154E-16   0.210E-14 -.149E-14 0.150E-14
   -.679E-15 -.159E-13 -.214E-13   -.711E-14 -.355E-14 0.355E-14   -.188E-17 -.130E-16 -.527E-17   0.204E-14 -.242E-14 -.511E-15
   -.142E-13 -.220E-14 0.337E-12   -.711E-14 -.355E-14 0.355E-14   -.259E-16 -.383E-16 -.191E-16   0.622E-15 -.145E-14 -.304E-15
   -.110E-13 0.126E-12 0.168E-12   -.711E-14 -.355E-14 0.355E-14   0.142E-16 0.863E-18 -.225E-16   0.969E-15 -.265E-14 0.178E-14
   -.427E-14 0.128E-12 -.637E-14   0.678E-14 0.248E-14 -.330E-14   -.161E-16 0.776E-17 0.174E-16   0.181E-14 -.575E-15 -.402E-14
   -.406E-14 0.435E-13 -.208E-13   0.681E-14 0.501E-14 -.323E-14   0.200E-16 0.219E-16 0.219E-16   0.166E-14 0.924E-15 0.636E-15
   -.183E-13 0.248E-12 -.211E-12   0.745E-14 0.216E-14 -.324E-14   0.448E-17 0.101E-16 0.766E-17   -.515E-14 -.662E-15 0.872E-15
   -.148E-13 0.471E-13 -.968E-13   0.748E-14 0.469E-14 -.449E-14   -.145E-16 0.858E-17 0.227E-16   -.503E-14 0.426E-15 -.411E-14
 -----------------------------------------------------------------------------------------------
   -.678E-13 0.572E-12 0.141E-12   0.991E-16 0.133E-15 -.523E-16   -.971E-18 -.125E-16 0.736E-17   -.972E-15 -.790E-14 -.416E-14
 
 
 POSITION                                       TOTAL-FORCE (eV/Angst)
 -----------------------------------------------------------------------------------
      0.00000      0.00000      0.00000        -0.000000      0.000000     -0.000000
      0.00000      2.71500      2.71500         0.000000      0.000000     -0.000000
      2.71500      0.00000      2.71500        -0.000000     -0.000000      0.000000
      2.71500      2.71500      0.00000         0.000000      0.000000      0.000000
      1.35750      1.35750      1.35750        -0.000000     -0.000000     -0.000000
      1.35750      4.07250      4.07250         0.000000      0.000000     -0.000000
      4.07250      1.35750      4.07250        -0.000000      0.000000     -0.000000
      4.07250      4.07250      1.35750         0.000000     -0.000000      0.000000
 -----------------------------------------------------------------------------------
    total drift:                               -0.000000      0.000000      0.000000


--------------------------------------------------------------------------------------------------------



  FREE ENERGIE OF THE ION-ELECTRON SYSTEM (eV)
  ---------------------------------------------------
  free  energy   TOTEN  =       -43.37760547 eV

  energy  without entropy=      -43.37760547  energy(sigma->0) =      -43.37760547
 


--------------------------------------------------------------------------------------------------------


    POTLOK:  cpu time    0.1166: real time    0.1171


--------------------------------------------------------------------------------------------------------


     LOOP+:  cpu time   48.2550: real time   48.5069
    4ORBIT:  cpu time    0.0000: real time    0.0000
 BZINTS: Fermi energy:  5.852462; 32.000000 electrons
         Band energy:  24.558222;  BLOECHL correction:  0.000000

 total amount of memory used by VASP MPI-rank0   130766. kBytes
=======================================================================

   base      :      30000. kBytes
   nonl-proj :      10931. kBytes
   fftplans  :      13060. kBytes
   grid      :      20134. kBytes
   one-center:         24. kBytes
   wavefun   :      56617. kBytes
 
  
  
 General timing and accounting informations for this job:
 ========================================================
  
                  Total CPU time used (sec):       49.366
                            User time (sec):       48.846
                          System time (sec):        0.520
                         Elapsed time (sec):       51.009
  
                   Maximum memory used (kb):      249264.
                   Average memory used (kb):           0.
  
                          Minor page faults:        92643
                          Major page faults:            5
                 Voluntary context switches:         1927
