 running on    1 total cores
 distrk:  each k-point on    1 cores,    1 groups
 distr:  one band on    1 cores,    1 groups
 using from now: INCAR     
 vasp.5.4.4.18Apr17-6-g9f103f2a35 (build Oct  7 2025 21:22:07) complex          
  
 POSCAR found type information on POSCAR  Si
 POSCAR found :  1 types and       8 ions
 scaLAPACK will be used
 LDA part: xc-table for Pade appr. of Perdew
 POSCAR, INCAR and KPOINTS ok, starting setup
 FFT: planning ...
 WAVECAR not read
 entering main loop
       N       E                     dE             d eps       ncg     rms          rms(c)
DAV:   1     0.641300588312E+02    0.64130E+02   -0.10445E+04  2352   0.100E+03
DAV:   2    -0.391152924446E+02   -0.10325E+03   -0.97654E+02  3171   0.154E+02
DAV:   3    -0.440021404110E+02   -0.48868E+01   -0.48226E+01  3012   0.328E+01
DAV:   4    -0.440959919125E+02   -0.93852E-01   -0.93537E-01  2930   0.551E+00
DAV:   5    -0.440982765050E+02   -0.22846E-02   -0.22833E-02  2952   0.763E-01    0.602E+00
DAV:   6    -0.435989904598E+02    0.49929E+00   -0.27883E-01  2737   0.230E+00    0.358E+00
DAV:   7    -0.433709878527E+02    0.22800E+00   -0.54883E-01  2661   0.334E+00    0.311E-01
DAV:   8    -0.433771382532E+02   -0.61504E-02   -0.28917E-02  2837   0.880E-01    0.616E-02
DAV:   9    -0.433774804606E+02   -0.34221E-03   -0.12298E-03  2997   0.191E-01    0.425E-02
DAV:  10    -0.433776041529E+02   -0.12369E-03   -0.27930E-04  2771   0.888E-02    0.991E-03
DAV:  11    -0.433776053764E+02   -0.12235E-05   -0.88527E-06  2879   0.141E-02    0.119E-03
DAV:  12    -0.433776054686E+02   -0.92222E-07   -0.61626E-07  1871   0.523E-03
   1 F= -.43377605E+02 E0= -.43377605E+02  d E =0.000000E+00
