<?xml version="1.0" encoding="ISO-8859-1"?>
<modeling>
 <generator>
  <i name="program" type="string">vasp </i>
  <i name="version" type="string">5.4.4.18Apr17-6-g9f103f2a35  </i>
  <i name="subversion" type="string">(build Oct  7 2025 21:22:07) complex            parallel </i>
  <i name="platform" type="string">LinuxIFC </i>
  <i name="date" type="string">2025 11 06 </i>
  <i name="time" type="string">02:17:50 </i>
 </generator>
 <incar>
  <i type="string" name="SYSTEM"> Si (diamond)</i>
  <i type="string" name="PREC">accurate</i>
  <i name="EDIFF">      0.00000100</i>
  <i name="ENCUT">    400.00000000</i>
  <i type="int" name="ISMEAR">    -5</i>
  <i type="logical" name="LWAVE"> F  </i>
  <i type="logical" name="LCHARG"> T  </i>
  <v type="int" name="KPOINT_BSE">    -1     0     0     0</v>
 </incar>
 <structure name="primitive_cell" >
  <crystal>
   <varray name="basis" >
    <v>       2.71500000       2.71500000       0.00000000 </v>
    <v>       2.71500000       0.00000000      -2.71500000 </v>
    <v>       0.00000000       2.71500000      -2.71500000 </v>
   </varray>
   <i name="volume">     40.02575175 </i>
   <varray name="rec_basis" >
    <v>       0.18416206       0.18416206       0.18416206 </v>
    <v>       0.18416206      -0.18416206      -0.18416206 </v>
    <v>      -0.18416206       0.18416206      -0.18416206 </v>
   </varray>
  </crystal>
  <varray name="positions" >
   <v>       0.00000000       0.00000000       0.00000000 </v>
   <v>      -0.25000000      -0.25000000      -0.25000000 </v>
  </varray>
 </structure>
 <varray name="primitive_index" >
  <v type="int" >        1 </v>
  <v type="int" >        5 </v>
 </varray>
 <kpoints>
  <generation param="Gamma">
   <v type="int" name="divisions">      10       10       10 </v>
   <v name="usershift">      0.00000000       0.00000000       0.00000000 </v>
   <v name="genvec1">      0.10000000       0.00000000       0.00000000 </v>
   <v name="genvec2">      0.00000000       0.10000000       0.00000000 </v>
   <v name="genvec3">      0.00000000       0.00000000       0.10000000 </v>
   <v name="shift">      0.00000000       0.00000000       0.00000000 </v>
  </generation>
  <varray name="kpointlist" >
   <v>       0.00000000       0.00000000       0.00000000 </v>
   <v>       0.10000000       0.00000000       0.00000000 </v>
   <v>       0.20000000       0.00000000       0.00000000 </v>
   <v>       0.30000000       0.00000000       0.00000000 </v>
   <v>       0.40000000       0.00000000       0.00000000 </v>
   <v>       0.50000000       0.00000000       0.00000000 </v>
   <v>       0.10000000       0.10000000       0.00000000 </v>
   <v>       0.20000000       0.10000000       0.00000000 </v>
   <v>       0.30000000       0.10000000       0.00000000 </v>
   <v>       0.40000000       0.10000000       0.00000000 </v>
   <v>       0.50000000       0.10000000       0.00000000 </v>
   <v>       0.20000000       0.20000000       0.00000000 </v>
   <v>       0.30000000       0.20000000       0.00000000 </v>
   <v>       0.40000000       0.20000000       0.00000000 </v>
   <v>       0.50000000       0.20000000       0.00000000 </v>
   <v>       0.30000000       0.30000000       0.00000000 </v>
   <v>       0.40000000       0.30000000       0.00000000 </v>
   <v>       0.50000000       0.30000000       0.00000000 </v>
   <v>       0.40000000       0.40000000       0.00000000 </v>
   <v>       0.50000000       0.40000000       0.00000000 </v>
   <v>       0.50000000       0.50000000       0.00000000 </v>
   <v>       0.10000000       0.10000000       0.10000000 </v>
   <v>       0.20000000       0.10000000       0.10000000 </v>
   <v>       0.30000000       0.10000000       0.10000000 </v>
   <v>       0.40000000       0.10000000       0.10000000 </v>
   <v>       0.50000000       0.10000000       0.10000000 </v>
   <v>       0.20000000       0.20000000       0.10000000 </v>
   <v>       0.30000000       0.20000000       0.10000000 </v>
   <v>       0.40000000       0.20000000       0.10000000 </v>
   <v>       0.50000000       0.20000000       0.10000000 </v>
   <v>       0.30000000       0.30000000       0.10000000 </v>
   <v>       0.40000000       0.30000000       0.10000000 </v>
   <v>       0.50000000       0.30000000       0.10000000 </v>
   <v>       0.40000000       0.40000000       0.10000000 </v>
   <v>       0.50000000       0.40000000       0.10000000 </v>
   <v>       0.50000000       0.50000000       0.10000000 </v>
   <v>       0.20000000       0.20000000       0.20000000 </v>
   <v>       0.30000000       0.20000000       0.20000000 </v>
   <v>       0.40000000       0.20000000       0.20000000 </v>
   <v>       0.50000000       0.20000000       0.20000000 </v>
   <v>       0.30000000       0.30000000       0.20000000 </v>
   <v>       0.40000000       0.30000000       0.20000000 </v>
   <v>       0.50000000       0.30000000       0.20000000 </v>
   <v>       0.40000000       0.40000000       0.20000000 </v>
   <v>       0.50000000       0.40000000       0.20000000 </v>
   <v>       0.50000000       0.50000000       0.20000000 </v>
   <v>       0.30000000       0.30000000       0.30000000 </v>
   <v>       0.40000000       0.30000000       0.30000000 </v>
   <v>       0.50000000       0.30000000       0.30000000 </v>
   <v>       0.40000000       0.40000000       0.30000000 </v>
   <v>       0.50000000       0.40000000       0.30000000 </v>
   <v>       0.50000000       0.50000000       0.30000000 </v>
   <v>       0.40000000       0.40000000       0.40000000 </v>
   <v>       0.50000000       0.40000000       0.40000000 </v>
   <v>       0.50000000       0.50000000       0.40000000 </v>
   <v>       0.50000000       0.50000000       0.50000000 </v>
  </varray>
  <varray name="weights" >
   <v>       0.00100000 </v>
   <v>       0.00600000 </v>
   <v>       0.00600000 </v>
   <v>       0.00600000 </v>
   <v>       0.00600000 </v>
   <v>       0.00300000 </v>
   <v>       0.01200000 </v>
   <v>       0.02400000 </v>
   <v>       0.02400000 </v>
   <v>       0.02400000 </v>
   <v>       0.01200000 </v>
   <v>       0.01200000 </v>
   <v>       0.02400000 </v>
   <v>       0.02400000 </v>
   <v>       0.01200000 </v>
   <v>       0.01200000 </v>
   <v>       0.02400000 </v>
   <v>       0.01200000 </v>
   <v>       0.01200000 </v>
   <v>       0.01200000 </v>
   <v>       0.00300000 </v>
   <v>       0.00800000 </v>
   <v>       0.02400000 </v>
   <v>       0.02400000 </v>
   <v>       0.02400000 </v>
   <v>       0.01200000 </v>
   <v>       0.02400000 </v>
   <v>       0.04800000 </v>
   <v>       0.04800000 </v>
   <v>       0.02400000 </v>
   <v>       0.02400000 </v>
   <v>       0.04800000 </v>
   <v>       0.02400000 </v>
   <v>       0.02400000 </v>
   <v>       0.02400000 </v>
   <v>       0.00600000 </v>
   <v>       0.00800000 </v>
   <v>       0.02400000 </v>
   <v>       0.02400000 </v>
   <v>       0.01200000 </v>
   <v>       0.02400000 </v>
   <v>       0.04800000 </v>
   <v>       0.02400000 </v>
   <v>       0.02400000 </v>
   <v>       0.02400000 </v>
   <v>       0.00600000 </v>
   <v>       0.00800000 </v>
   <v>       0.02400000 </v>
   <v>       0.01200000 </v>
   <v>       0.02400000 </v>
   <v>       0.02400000 </v>
   <v>       0.00600000 </v>
   <v>       0.00800000 </v>
   <v>       0.01200000 </v>
   <v>       0.00600000 </v>
   <v>       0.00100000 </v>
  </varray>
  <varray name="tetrahedronlist"  type="int" >
   <v type="int" >       12        1        2        2        7 </v>
   <v type="int" >       12        2        2        7        7 </v>
   <v type="int" >       12        2        7        7       22 </v>
   <v type="int" >       12        2        3        7        8 </v>
   <v type="int" >       12        2        7        7        8 </v>
   <v type="int" >       12        7        7        8       22 </v>
   <v type="int" >       12        3        7        8        8 </v>
   <v type="int" >       24        7        8        8       23 </v>
   <v type="int" >       24        7        8       22       23 </v>
   <v type="int" >       12        3        4        8        9 </v>
   <v type="int" >       12        3        8        8        9 </v>
   <v type="int" >       12        8        8        9       23 </v>
   <v type="int" >       12        4        8        9        9 </v>
   <v type="int" >       12        8        9        9       24 </v>
   <v type="int" >       12        8        9       23       24 </v>
   <v type="int" >       12        4        5        9       10 </v>
   <v type="int" >       12        4        9        9       10 </v>
   <v type="int" >       12        9        9       10       24 </v>
   <v type="int" >       12        5        9       10       10 </v>
   <v type="int" >       12        9       10       10       25 </v>
   <v type="int" >       12        9       10       24       25 </v>
   <v type="int" >       12        5        6       10       11 </v>
   <v type="int" >       12        5       10       10       11 </v>
   <v type="int" >       12       10       10       11       25 </v>
   <v type="int" >       12        6       10       11       11 </v>
   <v type="int" >       12       10       11       11       26 </v>
   <v type="int" >       12       10       11       25       26 </v>
   <v type="int" >       12        7        8       12       22 </v>
   <v type="int" >       12        8       12       22       23 </v>
   <v type="int" >       12       12       22       23       27 </v>
   <v type="int" >       12        8        9       13       23 </v>
   <v type="int" >       12        8       12       13       23 </v>
   <v type="int" >       12       12       13       23       27 </v>
   <v type="int" >       12        9       13       23       24 </v>
   <v type="int" >       12       13       23       24       28 </v>
   <v type="int" >       12       13       23       27       28 </v>
   <v type="int" >       12        9       10       14       24 </v>
   <v type="int" >       12        9       13       14       24 </v>
   <v type="int" >       12       13       14       24       28 </v>
   <v type="int" >       12       10       14       24       25 </v>
   <v type="int" >       12       14       24       25       29 </v>
   <v type="int" >       12       14       24       28       29 </v>
   <v type="int" >       12       10       11       15       25 </v>
   <v type="int" >       12       10       14       15       25 </v>
   <v type="int" >       12       14       15       25       29 </v>
   <v type="int" >       12       11       15       25       26 </v>
   <v type="int" >       12       15       25       26       30 </v>
   <v type="int" >       12       15       25       29       30 </v>
   <v type="int" >       12       10       11       14       26 </v>
   <v type="int" >       12       11       14       15       26 </v>
   <v type="int" >       12       14       15       26       30 </v>
   <v type="int" >       12       10       14       25       26 </v>
   <v type="int" >       12       14       25       26       29 </v>
   <v type="int" >       12       14       26       29       30 </v>
   <v type="int" >       12        9       10       13       25 </v>
   <v type="int" >       12       10       13       14       25 </v>
   <v type="int" >       12       13       14       25       29 </v>
   <v type="int" >       12        9       13       24       25 </v>
   <v type="int" >       12       13       24       25       28 </v>
   <v type="int" >       12       13       25       28       29 </v>
   <v type="int" >       12        8        9       12       24 </v>
   <v type="int" >       12        9       12       13       24 </v>
   <v type="int" >       12       12       13       24       28 </v>
   <v type="int" >       12        8       12       23       24 </v>
   <v type="int" >       12       12       23       24       27 </v>
   <v type="int" >       12       12       24       27       28 </v>
   <v type="int" >       12        8        8       12       23 </v>
   <v type="int" >       12        8       12       23       27 </v>
   <v type="int" >       12        8       22       23       23 </v>
   <v type="int" >       12        8       23       23       27 </v>
   <v type="int" >       12        2        3        7       22 </v>
   <v type="int" >       12        3        7        8       22 </v>
   <v type="int" >       12        3        8       22       23 </v>
   <v type="int" >       12       12       13       16       27 </v>
   <v type="int" >       12       13       16       27       28 </v>
   <v type="int" >       12       16       27       28       31 </v>
   <v type="int" >       12       13       14       17       28 </v>
   <v type="int" >       12       13       16       17       28 </v>
   <v type="int" >       12       16       17       28       31 </v>
   <v type="int" >       12       14       17       28       29 </v>
   <v type="int" >       12       17       28       29       32 </v>
   <v type="int" >       12       17       28       31       32 </v>
   <v type="int" >       12       14       15       18       29 </v>
   <v type="int" >       12       14       17       18       29 </v>
   <v type="int" >       12       17       18       29       32 </v>
   <v type="int" >       12       15       18       29       30 </v>
   <v type="int" >       12       18       29       30       33 </v>
   <v type="int" >       12       18       29       32       33 </v>
   <v type="int" >       12       14       15       17       30 </v>
   <v type="int" >       12       15       17       18       30 </v>
   <v type="int" >       12       17       18       30       33 </v>
   <v type="int" >       12       14       17       29       30 </v>
   <v type="int" >       12       17       29       30       32 </v>
   <v type="int" >       12       17       30       32       33 </v>
   <v type="int" >       12       13       14       16       29 </v>
   <v type="int" >       12       14       16       17       29 </v>
   <v type="int" >       12       16       17       29       32 </v>
   <v type="int" >       12       13       16       28       29 </v>
   <v type="int" >       12       16       28       29       31 </v>
   <v type="int" >       12       16       29       31       32 </v>
   <v type="int" >       12       12       13       13       28 </v>
   <v type="int" >       12       13       13       16       28 </v>
   <v type="int" >       12       13       16       28       31 </v>
   <v type="int" >       12       12       13       27       28 </v>
   <v type="int" >       12       13       27       28       28 </v>
   <v type="int" >       12       13       28       28       31 </v>
   <v type="int" >       12        8        9       12       27 </v>
   <v type="int" >       12        9       12       13       27 </v>
   <v type="int" >       12        9       13       27       28 </v>
   <v type="int" >       12        8        9       23       27 </v>
   <v type="int" >       12        9       23       24       27 </v>
   <v type="int" >       12        9       24       27       28 </v>
   <v type="int" >       12        3        4        8       23 </v>
   <v type="int" >       12        4        8        9       23 </v>
   <v type="int" >       12        4        9       23       24 </v>
   <v type="int" >       12       16       17       19       31 </v>
   <v type="int" >       12       17       19       31       32 </v>
   <v type="int" >       12       19       31       32       34 </v>
   <v type="int" >       12       17       18       20       32 </v>
   <v type="int" >       12       17       19       20       32 </v>
   <v type="int" >       12       19       20       32       34 </v>
   <v type="int" >       12       18       20       32       33 </v>
   <v type="int" >       12       20       32       33       35 </v>
   <v type="int" >       12       20       32       34       35 </v>
   <v type="int" >       12       17       18       19       33 </v>
   <v type="int" >       12       18       19       20       33 </v>
   <v type="int" >       12       19       20       33       35 </v>
   <v type="int" >       12       17       19       32       33 </v>
   <v type="int" >       12       19       32       33       34 </v>
   <v type="int" >       12       19       33       34       35 </v>
   <v type="int" >       12       16       17       17       32 </v>
   <v type="int" >       12       17       17       19       32 </v>
   <v type="int" >       12       17       19       32       34 </v>
   <v type="int" >       12       16       17       31       32 </v>
   <v type="int" >       12       17       31       32       32 </v>
   <v type="int" >       12       17       32       32       34 </v>
   <v type="int" >       12       13       14       16       31 </v>
   <v type="int" >       12       14       16       17       31 </v>
   <v type="int" >       12       14       17       31       32 </v>
   <v type="int" >       12       13       14       28       31 </v>
   <v type="int" >       12       14       28       29       31 </v>
   <v type="int" >       12       14       29       31       32 </v>
   <v type="int" >       12        9       10       13       28 </v>
   <v type="int" >       12       10       13       14       28 </v>
   <v type="int" >       12       10       14       28       29 </v>
   <v type="int" >       12        9       10       24       28 </v>
   <v type="int" >       12       10       24       25       28 </v>
   <v type="int" >       12       10       25       28       29 </v>
   <v type="int" >       12        4        5        9       24 </v>
   <v type="int" >       12        5        9       10       24 </v>
   <v type="int" >       12        5       10       24       25 </v>
   <v type="int" >       12       19       20       21       34 </v>
   <v type="int" >       12       20       21       34       35 </v>
   <v type="int" >       12       21       34       35       36 </v>
   <v type="int" >       12       19       20       20       35 </v>
   <v type="int" >       12       20       20       21       35 </v>
   <v type="int" >       12       20       21       35       36 </v>
   <v type="int" >       12       19       20       34       35 </v>
   <v type="int" >       12       20       34       35       35 </v>
   <v type="int" >       12       20       35       35       36 </v>
   <v type="int" >       12       17       18       19       34 </v>
   <v type="int" >       12       18       19       20       34 </v>
   <v type="int" >       12       18       20       34       35 </v>
   <v type="int" >       12       17       18       32       34 </v>
   <v type="int" >       12       18       32       33       34 </v>
   <v type="int" >       12       18       33       34       35 </v>
   <v type="int" >       12       14       15       17       32 </v>
   <v type="int" >       12       15       17       18       32 </v>
   <v type="int" >       12       15       18       32       33 </v>
   <v type="int" >       12       14       15       29       32 </v>
   <v type="int" >       12       15       29       30       32 </v>
   <v type="int" >       12       15       30       32       33 </v>
   <v type="int" >       12       10       11       14       29 </v>
   <v type="int" >       12       11       14       15       29 </v>
   <v type="int" >       12       11       15       29       30 </v>
   <v type="int" >       12       10       11       25       29 </v>
   <v type="int" >       12       11       25       26       29 </v>
   <v type="int" >       12       11       26       29       30 </v>
   <v type="int" >       12        5        6       10       25 </v>
   <v type="int" >       12        6       10       11       25 </v>
   <v type="int" >       12        6       11       25       26 </v>
   <v type="int" >       12       19       20       21       36 </v>
   <v type="int" >       12       19       20       35       36 </v>
   <v type="int" >       12       19       34       35       36 </v>
   <v type="int" >       12       17       18       20       35 </v>
   <v type="int" >       12       17       19       20       35 </v>
   <v type="int" >       12       17       19       34       35 </v>
   <v type="int" >       12       17       18       33       35 </v>
   <v type="int" >       12       17       32       33       35 </v>
   <v type="int" >       12       17       32       34       35 </v>
   <v type="int" >       12       14       15       18       33 </v>
   <v type="int" >       12       14       17       18       33 </v>
   <v type="int" >       12       14       17       32       33 </v>
   <v type="int" >       12       14       15       30       33 </v>
   <v type="int" >       12       14       29       30       33 </v>
   <v type="int" >       12       14       29       32       33 </v>
   <v type="int" >       12       10       11       15       30 </v>
   <v type="int" >       12       10       14       15       30 </v>
   <v type="int" >       12       10       14       29       30 </v>
   <v type="int" >       12       10       11       26       30 </v>
   <v type="int" >       12       10       25       26       30 </v>
   <v type="int" >       12       10       25       29       30 </v>
   <v type="int" >       12        5        6       11       26 </v>
   <v type="int" >       12        5       10       11       26 </v>
   <v type="int" >       12        5       10       25       26 </v>
   <v type="int" >       12       16       17       19       34 </v>
   <v type="int" >       12       16       17       32       34 </v>
   <v type="int" >       12       16       31       32       34 </v>
   <v type="int" >       12       13       14       17       32 </v>
   <v type="int" >       12       13       16       17       32 </v>
   <v type="int" >       12       13       16       31       32 </v>
   <v type="int" >       12       13       14       29       32 </v>
   <v type="int" >       12       13       28       29       32 </v>
   <v type="int" >       12       13       28       31       32 </v>
   <v type="int" >       12        9       10       14       29 </v>
   <v type="int" >       12        9       13       14       29 </v>
   <v type="int" >       12        9       13       28       29 </v>
   <v type="int" >       12        9       10       25       29 </v>
   <v type="int" >       12        9       24       25       29 </v>
   <v type="int" >       12        9       24       28       29 </v>
   <v type="int" >       12        4        5       10       25 </v>
   <v type="int" >       12        4        9       10       25 </v>
   <v type="int" >       12        4        9       24       25 </v>
   <v type="int" >       12       12       13       16       31 </v>
   <v type="int" >       12       12       13       28       31 </v>
   <v type="int" >       12       12       27       28       31 </v>
   <v type="int" >       12        8        9       13       28 </v>
   <v type="int" >       12        8       12       13       28 </v>
   <v type="int" >       12        8       12       27       28 </v>
   <v type="int" >       12        8        9       24       28 </v>
   <v type="int" >       12        8       23       24       28 </v>
   <v type="int" >       12        8       23       27       28 </v>
   <v type="int" >       12        3        4        9       24 </v>
   <v type="int" >       12        3        8        9       24 </v>
   <v type="int" >       12        3        8       23       24 </v>
   <v type="int" >       12        7        8       12       27 </v>
   <v type="int" >       12        7        8       23       27 </v>
   <v type="int" >       12        7       22       23       27 </v>
   <v type="int" >       12        2        3        8       23 </v>
   <v type="int" >       12        2        7        8       23 </v>
   <v type="int" >       12        2        7       22       23 </v>
   <v type="int" >       12        1        2        7       22 </v>
   <v type="int" >       12       22       23       23       27 </v>
   <v type="int" >       12       23       23       27       27 </v>
   <v type="int" >       12       23       27       27       37 </v>
   <v type="int" >       12       23       24       27       28 </v>
   <v type="int" >       12       23       27       27       28 </v>
   <v type="int" >       12       27       27       28       37 </v>
   <v type="int" >       12       24       27       28       28 </v>
   <v type="int" >       24       27       28       28       38 </v>
   <v type="int" >       24       27       28       37       38 </v>
   <v type="int" >       12       24       25       28       29 </v>
   <v type="int" >       12       24       28       28       29 </v>
   <v type="int" >       12       28       28       29       38 </v>
   <v type="int" >       12       25       28       29       29 </v>
   <v type="int" >       12       28       29       29       39 </v>
   <v type="int" >       12       28       29       38       39 </v>
   <v type="int" >       12       25       26       29       30 </v>
   <v type="int" >       12       25       29       29       30 </v>
   <v type="int" >       12       29       29       30       39 </v>
   <v type="int" >       12       26       29       30       30 </v>
   <v type="int" >       12       29       30       30       40 </v>
   <v type="int" >       12       29       30       39       40 </v>
   <v type="int" >       12       27       28       31       37 </v>
   <v type="int" >       12       28       31       37       38 </v>
   <v type="int" >       12       31       37       38       41 </v>
   <v type="int" >       12       28       29       32       38 </v>
   <v type="int" >       12       28       31       32       38 </v>
   <v type="int" >       12       31       32       38       41 </v>
   <v type="int" >       12       29       32       38       39 </v>
   <v type="int" >       12       32       38       39       42 </v>
   <v type="int" >       12       32       38       41       42 </v>
   <v type="int" >       12       29       30       33       39 </v>
   <v type="int" >       12       29       32       33       39 </v>
   <v type="int" >       12       32       33       39       42 </v>
   <v type="int" >       12       30       33       39       40 </v>
   <v type="int" >       12       33       39       40       43 </v>
   <v type="int" >       12       33       39       42       43 </v>
   <v type="int" >       12       29       30       32       40 </v>
   <v type="int" >       12       30       32       33       40 </v>
   <v type="int" >       12       32       33       40       43 </v>
   <v type="int" >       12       29       32       39       40 </v>
   <v type="int" >       12       32       39       40       42 </v>
   <v type="int" >       12       32       40       42       43 </v>
   <v type="int" >       12       28       29       31       39 </v>
   <v type="int" >       12       29       31       32       39 </v>
   <v type="int" >       12       31       32       39       42 </v>
   <v type="int" >       12       28       31       38       39 </v>
   <v type="int" >       12       31       38       39       41 </v>
   <v type="int" >       12       31       39       41       42 </v>
   <v type="int" >       12       28       28       31       38 </v>
   <v type="int" >       12       28       31       38       41 </v>
   <v type="int" >       12       28       37       38       38 </v>
   <v type="int" >       12       28       38       38       41 </v>
   <v type="int" >       12       23       24       27       37 </v>
   <v type="int" >       12       24       27       28       37 </v>
   <v type="int" >       12       24       28       37       38 </v>
   <v type="int" >       12       31       32       34       41 </v>
   <v type="int" >       12       32       34       41       42 </v>
   <v type="int" >       12       34       41       42       44 </v>
   <v type="int" >       12       32       33       35       42 </v>
   <v type="int" >       12       32       34       35       42 </v>
   <v type="int" >       12       34       35       42       44 </v>
   <v type="int" >       12       33       35       42       43 </v>
   <v type="int" >       12       35       42       43       45 </v>
   <v type="int" >       12       35       42       44       45 </v>
   <v type="int" >       12       32       33       34       43 </v>
   <v type="int" >       12       33       34       35       43 </v>
   <v type="int" >       12       34       35       43       45 </v>
   <v type="int" >       12       32       34       42       43 </v>
   <v type="int" >       12       34       42       43       44 </v>
   <v type="int" >       12       34       43       44       45 </v>
   <v type="int" >       12       31       32       32       42 </v>
   <v type="int" >       12       32       32       34       42 </v>
   <v type="int" >       12       32       34       42       44 </v>
   <v type="int" >       12       31       32       41       42 </v>
   <v type="int" >       12       32       41       42       42 </v>
   <v type="int" >       12       32       42       42       44 </v>
   <v type="int" >       12       28       29       31       41 </v>
   <v type="int" >       12       29       31       32       41 </v>
   <v type="int" >       12       29       32       41       42 </v>
   <v type="int" >       12       28       29       38       41 </v>
   <v type="int" >       12       29       38       39       41 </v>
   <v type="int" >       12       29       39       41       42 </v>
   <v type="int" >       12       24       25       28       38 </v>
   <v type="int" >       12       25       28       29       38 </v>
   <v type="int" >       12       25       29       38       39 </v>
   <v type="int" >       12       34       35       36       44 </v>
   <v type="int" >       12       35       36       44       45 </v>
   <v type="int" >       12       36       44       45       46 </v>
   <v type="int" >       12       34       35       35       45 </v>
   <v type="int" >       12       35       35       36       45 </v>
   <v type="int" >       12       35       36       45       46 </v>
   <v type="int" >       12       34       35       44       45 </v>
   <v type="int" >       12       35       44       45       45 </v>
   <v type="int" >       12       35       45       45       46 </v>
   <v type="int" >       12       32       33       34       44 </v>
   <v type="int" >       12       33       34       35       44 </v>
   <v type="int" >       12       33       35       44       45 </v>
   <v type="int" >       12       32       33       42       44 </v>
   <v type="int" >       12       33       42       43       44 </v>
   <v type="int" >       12       33       43       44       45 </v>
   <v type="int" >       12       29       30       32       42 </v>
   <v type="int" >       12       30       32       33       42 </v>
   <v type="int" >       12       30       33       42       43 </v>
   <v type="int" >       12       29       30       39       42 </v>
   <v type="int" >       12       30       39       40       42 </v>
   <v type="int" >       12       30       40       42       43 </v>
   <v type="int" >       12       25       26       29       39 </v>
   <v type="int" >       12       26       29       30       39 </v>
   <v type="int" >       12       26       30       39       40 </v>
   <v type="int" >       12       34       35       36       46 </v>
   <v type="int" >       12       34       35       45       46 </v>
   <v type="int" >       12       34       44       45       46 </v>
   <v type="int" >       12       32       33       35       45 </v>
   <v type="int" >       12       32       34       35       45 </v>
   <v type="int" >       12       32       34       44       45 </v>
   <v type="int" >       12       32       33       43       45 </v>
   <v type="int" >       12       32       42       43       45 </v>
   <v type="int" >       12       32       42       44       45 </v>
   <v type="int" >       12       29       30       33       43 </v>
   <v type="int" >       12       29       32       33       43 </v>
   <v type="int" >       12       29       32       42       43 </v>
   <v type="int" >       12       29       30       40       43 </v>
   <v type="int" >       12       29       39       40       43 </v>
   <v type="int" >       12       29       39       42       43 </v>
   <v type="int" >       12       25       26       30       40 </v>
   <v type="int" >       12       25       29       30       40 </v>
   <v type="int" >       12       25       29       39       40 </v>
   <v type="int" >       12       31       32       34       44 </v>
   <v type="int" >       12       31       32       42       44 </v>
   <v type="int" >       12       31       41       42       44 </v>
   <v type="int" >       12       28       29       32       42 </v>
   <v type="int" >       12       28       31       32       42 </v>
   <v type="int" >       12       28       31       41       42 </v>
   <v type="int" >       12       28       29       39       42 </v>
   <v type="int" >       12       28       38       39       42 </v>
   <v type="int" >       12       28       38       41       42 </v>
   <v type="int" >       12       24       25       29       39 </v>
   <v type="int" >       12       24       28       29       39 </v>
   <v type="int" >       12       24       28       38       39 </v>
   <v type="int" >       12       27       28       31       41 </v>
   <v type="int" >       12       27       28       38       41 </v>
   <v type="int" >       12       27       37       38       41 </v>
   <v type="int" >       12       23       24       28       38 </v>
   <v type="int" >       12       23       27       28       38 </v>
   <v type="int" >       12       23       27       37       38 </v>
   <v type="int" >       12       22       23       27       37 </v>
   <v type="int" >       12       37       38       38       41 </v>
   <v type="int" >       12       38       38       41       41 </v>
   <v type="int" >       12       38       41       41       47 </v>
   <v type="int" >       12       38       39       41       42 </v>
   <v type="int" >       12       38       41       41       42 </v>
   <v type="int" >       12       41       41       42       47 </v>
   <v type="int" >       12       39       41       42       42 </v>
   <v type="int" >       24       41       42       42       48 </v>
   <v type="int" >       24       41       42       47       48 </v>
   <v type="int" >       12       39       40       42       43 </v>
   <v type="int" >       12       39       42       42       43 </v>
   <v type="int" >       12       42       42       43       48 </v>
   <v type="int" >       12       40       42       43       43 </v>
   <v type="int" >       12       42       43       43       49 </v>
   <v type="int" >       12       42       43       48       49 </v>
   <v type="int" >       12       41       42       44       47 </v>
   <v type="int" >       12       42       44       47       48 </v>
   <v type="int" >       12       44       47       48       50 </v>
   <v type="int" >       12       42       43       45       48 </v>
   <v type="int" >       12       42       44       45       48 </v>
   <v type="int" >       12       44       45       48       50 </v>
   <v type="int" >       12       43       45       48       49 </v>
   <v type="int" >       12       45       48       49       51 </v>
   <v type="int" >       12       45       48       50       51 </v>
   <v type="int" >       12       42       43       44       49 </v>
   <v type="int" >       12       43       44       45       49 </v>
   <v type="int" >       12       44       45       49       51 </v>
   <v type="int" >       12       42       44       48       49 </v>
   <v type="int" >       12       44       48       49       50 </v>
   <v type="int" >       12       44       49       50       51 </v>
   <v type="int" >       12       42       42       44       48 </v>
   <v type="int" >       12       42       44       48       50 </v>
   <v type="int" >       12       42       47       48       48 </v>
   <v type="int" >       12       42       48       48       50 </v>
   <v type="int" >       12       38       39       41       47 </v>
   <v type="int" >       12       39       41       42       47 </v>
   <v type="int" >       12       39       42       47       48 </v>
   <v type="int" >       12       44       45       46       50 </v>
   <v type="int" >       12       45       46       50       51 </v>
   <v type="int" >       12       46       50       51       52 </v>
   <v type="int" >       12       44       45       45       51 </v>
   <v type="int" >       12       45       45       46       51 </v>
   <v type="int" >       12       45       46       51       52 </v>
   <v type="int" >       12       44       45       50       51 </v>
   <v type="int" >       12       45       50       51       51 </v>
   <v type="int" >       12       45       51       51       52 </v>
   <v type="int" >       12       42       43       44       50 </v>
   <v type="int" >       12       43       44       45       50 </v>
   <v type="int" >       12       43       45       50       51 </v>
   <v type="int" >       12       42       43       48       50 </v>
   <v type="int" >       12       43       48       49       50 </v>
   <v type="int" >       12       43       49       50       51 </v>
   <v type="int" >       12       39       40       42       48 </v>
   <v type="int" >       12       40       42       43       48 </v>
   <v type="int" >       12       40       43       48       49 </v>
   <v type="int" >       12       44       45       46       52 </v>
   <v type="int" >       12       44       45       51       52 </v>
   <v type="int" >       12       44       50       51       52 </v>
   <v type="int" >       12       42       43       45       51 </v>
   <v type="int" >       12       42       44       45       51 </v>
   <v type="int" >       12       42       44       50       51 </v>
   <v type="int" >       12       42       43       49       51 </v>
   <v type="int" >       12       42       48       49       51 </v>
   <v type="int" >       12       42       48       50       51 </v>
   <v type="int" >       12       39       40       43       49 </v>
   <v type="int" >       12       39       42       43       49 </v>
   <v type="int" >       12       39       42       48       49 </v>
   <v type="int" >       12       41       42       44       50 </v>
   <v type="int" >       12       41       42       48       50 </v>
   <v type="int" >       12       41       47       48       50 </v>
   <v type="int" >       12       38       39       42       48 </v>
   <v type="int" >       12       38       41       42       48 </v>
   <v type="int" >       12       38       41       47       48 </v>
   <v type="int" >       12       37       38       41       47 </v>
   <v type="int" >       12       47       48       48       50 </v>
   <v type="int" >       12       48       48       50       50 </v>
   <v type="int" >       12       48       50       50       53 </v>
   <v type="int" >       12       48       49       50       51 </v>
   <v type="int" >       12       48       50       50       51 </v>
   <v type="int" >       12       50       50       51       53 </v>
   <v type="int" >       12       49       50       51       51 </v>
   <v type="int" >       24       50       51       51       54 </v>
   <v type="int" >       24       50       51       53       54 </v>
   <v type="int" >       12       50       51       52       53 </v>
   <v type="int" >       12       51       52       53       54 </v>
   <v type="int" >       12       52       53       54       55 </v>
   <v type="int" >       12       51       51       52       54 </v>
   <v type="int" >       12       51       52       54       55 </v>
   <v type="int" >       12       51       53       54       54 </v>
   <v type="int" >       12       51       54       54       55 </v>
   <v type="int" >       12       48       49       50       53 </v>
   <v type="int" >       12       49       50       51       53 </v>
   <v type="int" >       12       49       51       53       54 </v>
   <v type="int" >       12       50       51       52       55 </v>
   <v type="int" >       12       50       51       54       55 </v>
   <v type="int" >       12       50       53       54       55 </v>
   <v type="int" >       12       48       49       51       54 </v>
   <v type="int" >       12       48       50       51       54 </v>
   <v type="int" >       12       48       50       53       54 </v>
   <v type="int" >       12       47       48       50       53 </v>
   <v type="int" >       12       53       54       54       55 </v>
   <v type="int" >       12       54       54       55       55 </v>
   <v type="int" >       12       54       55       55       56 </v>
   <v type="int" >       12       53       54       55       56 </v>
  </varray>
  <i name="volumeweight">      0.00016667 </i>
 </kpoints>
 <parameters>
  <separator name="general" >
   <i type="string" name="SYSTEM">Si (diamond)</i>
   <i type="logical" name="LCOMPAT"> F  </i>
  </separator>
  <separator name="electronic" >
   <i type="string" name="PREC">accura</i>
   <i name="ENMAX">    400.00000000</i>
   <i name="ENAUG">    322.06900000</i>
   <i name="EDIFF">      0.00000100</i>
   <i type="int" name="IALGO">    38</i>
   <i type="int" name="IWAVPR">    10</i>
   <i type="int" name="NBANDS">    21</i>
   <i name="NELECT">     32.00000000</i>
   <i type="int" name="TURBO">     0</i>
   <i type="int" name="IRESTART">     0</i>
   <i type="int" name="NREBOOT">     0</i>
   <i type="int" name="NMIN">     0</i>
   <i name="EREF">      0.00000000</i>
   <separator name="electronic smearing" >
    <i type="int" name="ISMEAR">    -5</i>
    <i name="SIGMA">      0.20000000</i>
    <i name="KSPACING">      0.50000000</i>
    <i type="logical" name="KGAMMA"> T  </i>
   </separator>
   <separator name="electronic projectors" >
    <i type="logical" name="LREAL"> F  </i>
    <v name="ROPT">      0.00000000</v>
    <i type="int" name="LMAXPAW">  -100</i>
    <i type="int" name="LMAXMIX">     2</i>
    <i type="logical" name="NLSPLINE"> F  </i>
   </separator>
   <separator name="electronic startup" >
    <i type="int" name="ISTART">     0</i>
    <i type="int" name="ICHARG">     2</i>
    <i type="int" name="INIWAV">     1</i>
   </separator>
   <separator name="electronic spin" >
    <i type="int" name="ISPIN">     1</i>
    <i type="logical" name="LNONCOLLINEAR"> F  </i>
    <v name="MAGMOM">      1.00000000      1.00000000      1.00000000      1.00000000      1.00000000      1.00000000      1.00000000      1.00000000</v>
    <i name="NUPDOWN">     -1.00000000</i>
    <i type="logical" name="LSORBIT"> F  </i>
    <v name="SAXIS">      0.00000000      0.00000000      1.00000000</v>
    <i type="logical" name="LSPIRAL"> F  </i>
    <v name="QSPIRAL">      0.00000000      0.00000000      0.00000000</v>
    <i type="logical" name="LZEROZ"> F  </i>
   </separator>
   <separator name="electronic exchange-correlation" >
    <i type="logical" name="LASPH"> F  </i>
    <i type="logical" name="LMETAGGA"> F  </i>
   </separator>
   <separator name="electronic convergence" >
    <i type="int" name="NELM">    60</i>
    <i type="int" name="NELMDL">    -5</i>
    <i type="int" name="NELMIN">     2</i>
    <i name="ENINI">    400.00000000</i>
    <separator name="electronic convergence detail" >
     <i type="logical" name="LDIAG"> T  </i>
     <i type="logical" name="LSUBROT"> F  </i>
     <i name="WEIMIN">      0.00000000</i>
     <i name="EBREAK">      0.00000001</i>
     <i name="DEPER">      0.30000000</i>
     <i type="int" name="NRMM">     4</i>
     <i name="TIME">      0.40000000</i>
    </separator>
   </separator>
   <separator name="electronic mixer" >
    <i name="AMIX">      0.40000000</i>
    <i name="BMIX">      1.00000000</i>
    <i name="AMIN">      0.10000000</i>
    <i name="AMIX_MAG">      1.60000000</i>
    <i name="BMIX_MAG">      1.00000000</i>
    <separator name="electronic mixer details" >
     <i type="int" name="IMIX">     4</i>
     <i type="logical" name="MIXFIRST"> F  </i>
     <i type="int" name="MAXMIX">   -45</i>
     <i name="WC">    100.00000000</i>
     <i type="int" name="INIMIX">     1</i>
     <i type="int" name="MIXPRE">     1</i>
     <i type="int" name="MREMOVE">     5</i>
    </separator>
   </separator>
   <separator name="electronic dipolcorrection" >
    <i type="logical" name="LDIPOL"> F  </i>
    <i type="logical" name="LMONO"> F  </i>
    <i type="int" name="IDIPOL">     0</i>
    <i name="EPSILON">      1.00000000</i>
    <v name="DIPOL">   -100.00000000   -100.00000000   -100.00000000</v>
    <i name="EFIELD">      0.00000000</i>
   </separator>
  </separator>
  <separator name="grids" >
   <i type="int" name="NGX">    36</i>
   <i type="int" name="NGY">    36</i>
   <i type="int" name="NGZ">    36</i>
   <i type="int" name="NGXF">    72</i>
   <i type="int" name="NGYF">    72</i>
   <i type="int" name="NGZF">    72</i>
   <i type="logical" name="ADDGRID"> F  </i>
  </separator>
  <separator name="ionic" >
   <i type="int" name="NSW">     0</i>
   <i type="int" name="IBRION">    -1</i>
   <i type="int" name="MDALGO">     0</i>
   <i type="int" name="ISIF">     2</i>
   <i name="PSTRESS">      0.00000000</i>
   <i name="EDIFFG">      0.00001000</i>
   <i type="int" name="NFREE">     0</i>
   <i name="POTIM">      0.50000000</i>
   <i name="SMASS">     -3.00000000</i>
   <i name="SCALEE">      1.00000000</i>
  </separator>
  <separator name="ionic md" >
   <i name="TEBEG">      0.00010000</i>
   <i name="TEEND">      0.00010000</i>
   <i type="int" name="NBLOCK">     1</i>
   <i type="int" name="KBLOCK">     1</i>
   <i type="int" name="NPACO">   256</i>
   <i name="APACO">     16.00000000</i>
  </separator>
  <separator name="symmetry" >
   <i type="int" name="ISYM">     2</i>
   <i name="SYMPREC">      0.00001000</i>
  </separator>
  <separator name="dos" >
   <i type="int" name="LORBIT">     0</i>
   <v name="RWIGS">     -1.00000000</v>
   <i type="int" name="NEDOS">   301</i>
   <i name="EMIN">     10.00000000</i>
   <i name="EMAX">    -10.00000000</i>
   <i name="EFERMI">      0.00000000</i>
  </separator>
  <separator name="writing" >
   <i type="int" name="NWRITE">     2</i>
   <i type="logical" name="LWAVE"> F  </i>
   <i type="logical" name="LDOWNSAMPLE"> F  </i>
   <i type="logical" name="LCHARG"> T  </i>
   <i type="logical" name="LPARD"> F  </i>
   <i type="logical" name="LVTOT"> F  </i>
   <i type="logical" name="LVHAR"> F  </i>
   <i type="logical" name="LELF"> F  </i>
   <i type="logical" name="LOPTICS"> F  </i>
   <v name="STM">      0.00000000      0.00000000      0.00000000      0.00000000      0.00000000      0.00000000      0.00000000</v>
  </separator>
  <separator name="performance" >
   <i type="int" name="NPAR">     1</i>
   <i type="int" name="NSIM">     4</i>
   <i type="int" name="NBLK">    -1</i>
   <i type="logical" name="LPLANE"> T  </i>
   <i type="logical" name="LSCALAPACK"> T  </i>
   <i type="logical" name="LSCAAWARE"> F  </i>
   <i type="logical" name="LSCALU"> F  </i>
   <i type="logical" name="LASYNC"> F  </i>
   <i type="logical" name="LORBITALREAL"> F  </i>
  </separator>
  <separator name="miscellaneous" >
   <i type="int" name="IDIOT">     3</i>
   <i type="int" name="ISPECIAL">     0</i>
   <i type="logical" name="LMUSIC"> F  </i>
   <v name="POMASS">     28.08500000</v>
   <v name="DARWINR">      0.00000000</v>
   <v name="DARWINV">      1.00000000</v>
   <i type="logical" name="LCORR"> T  </i>
  </separator>
  <i type="logical" name="GGA_COMPAT"> T  </i>
  <i type="logical" name="LBERRY"> F  </i>
  <i type="int" name="ICORELEVEL">     0</i>
  <i type="logical" name="LDAU"> F  </i>
  <i type="int" name="I_CONSTRAINED_M">     0</i>
  <separator name="electronic exchange-correlation" >
   <i type="string" name="GGA">--</i>
   <i type="int" name="VOSKOWN">     0</i>
   <i type="logical" name="LHFCALC"> F  </i>
   <i type="string" name="PRECFOCK"></i>
   <i type="logical" name="LSYMGRAD"> F  </i>
   <i type="logical" name="LHFONE"> F  </i>
   <i type="logical" name="LRHFCALC"> F  </i>
   <i type="logical" name="LTHOMAS"> F  </i>
   <i type="logical" name="LMODELHF"> F  </i>
   <i name="ENCUT4O">     -1.00000000</i>
   <i type="int" name="EXXOEP">     0</i>
   <i type="int" name="FOURORBIT">     0</i>
   <i name="AEXX">      0.00000000</i>
   <i name="HFALPHA">      0.00000000</i>
   <i name="MCALPHA">      0.00000000</i>
   <i name="ALDAX">      1.00000000</i>
   <i name="AGGAX">      1.00000000</i>
   <i name="ALDAC">      1.00000000</i>
   <i name="AGGAC">      1.00000000</i>
   <i type="int" name="NKREDX">     1</i>
   <i type="int" name="NKREDY">     1</i>
   <i type="int" name="NKREDZ">     1</i>
   <i type="logical" name="SHIFTRED"> F  </i>
   <i type="logical" name="ODDONLY"> F  </i>
   <i type="logical" name="EVENONLY"> F  </i>
   <i type="int" name="LMAXFOCK">     0</i>
   <i type="int" name="NMAXFOCKAE">     0</i>
   <i type="logical" name="LFOCKAEDFT"> F  </i>
   <i name="HFSCREEN">      0.00000000</i>
   <i name="HFSCREENC">      0.00000000</i>
   <i type="int" name="NBANDSGWLOW">     0</i>
  </separator>
  <separator name="vdW DFT" >
   <i type="logical" name="LUSE_VDW"> F  </i>
   <i name="Zab_VDW">     -0.84910000</i>
   <i name="PARAM1">      0.12340000</i>
   <i name="PARAM2">      1.00000000</i>
   <i name="PARAM3">      0.00000000</i>
  </separator>
  <separator name="model GW" >
   <i type="int" name="MODEL_GW">     0</i>
   <i name="MODEL_EPS0">     12.00772552</i>
   <i name="MODEL_ALPHA">      1.00000000</i>
  </separator>
  <separator name="linear response parameters" >
   <i type="logical" name="LEPSILON"> F  </i>
   <i type="logical" name="LRPA"> F  </i>
   <i type="logical" name="LNABLA"> F  </i>
   <i type="logical" name="LVEL"> F  </i>
   <i type="int" name="KINTER">     0</i>
   <i name="CSHIFT">      0.10000000</i>
   <i name="OMEGAMAX">     -1.00000000</i>
   <i name="DEG_THRESHOLD">      0.00200000</i>
   <i name="RTIME">     -0.10000000</i>
   <i name="WPLASMAI">      0.00000000</i>
   <v name="DFIELD">      0.00000000      0.00000000      0.00000000</v>
   <v name="WPLASMA">      0.00000000      0.00000000      0.00000000      0.00000000      0.00000000      0.00000000      0.00000000      0.00000000      0.00000000</v>
  </separator>
  <separator name="orbital magnetization" >
   <i type="logical" name="NUCIND"> F  </i>
   <v name="MAGPOS">      0.00000000      0.00000000      0.00000000</v>
   <i type="logical" name="LNICSALL"> T  </i>
   <i type="logical" name="ORBITALMAG"> F  </i>
   <i type="logical" name="LMAGBLOCH"> F  </i>
   <i type="logical" name="LCHIMAG"> F  </i>
   <i type="logical" name="LGAUGE"> T  </i>
   <i type="int" name="MAGATOM">     0</i>
   <v name="MAGDIPOL">      0.00000000      0.00000000      0.00000000</v>
   <v name="AVECCONST">      0.00000000      0.00000000      0.00000000</v>
  </separator>
  <separator name="response functions" >
   <i type="logical" name="LADDER"> F  </i>
   <i type="logical" name="LRPAFORCE"> F  </i>
   <i type="logical" name="LFXC"> F  </i>
   <i type="logical" name="LHARTREE"> T  </i>
   <i type="int" name="IBSE">     0</i>
   <v type="int" name="KPOINT">    -1     0     0     0</v>
   <i type="logical" name="LTCTE"> F  </i>
   <i type="logical" name="LTETE"> F  </i>
   <i type="logical" name="LTRIPLET"> F  </i>
   <i type="logical" name="LFXCEPS"> F  </i>
   <i type="logical" name="LFXHEG"> F  </i>
   <i type="int" name="NATURALO">     2</i>
   <i type="logical" name="L2ORDER"> F  </i>
   <i type="logical" name="LMP2LT"> F  </i>
   <i type="logical" name="LUSEW"> F  </i>
   <i name="ENCUTGW">     -2.00000000</i>
   <i name="ENCUTGWSOFT">     -2.00000000</i>
   <i name="ENCUTLF">     -1.00000000</i>
   <i type="int" name="LMAXMP2">    -1</i>
   <i name="SCISSOR">      0.00000000</i>
   <i type="int" name="NOMEGA">     0</i>
   <i type="int" name="NOMEGAR">     0</i>
   <i type="int" name="NBANDSGW">    -1</i>
   <i type="int" name="NBANDSO">    -1</i>
   <i type="int" name="NBANDSV">    -1</i>
   <i type="int" name="NELM">     1</i>
   <i type="int" name="NELMHF">     1</i>
   <i type="int" name="DIM">     3</i>
   <i type="int" name="ANTIRES">     0</i>
   <i name="OMEGAMAX">    -30.00000000</i>
   <i name="OMEGAMIN">    -30.00000000</i>
   <i name="OMEGATL">   -200.00000000</i>
   <i type="int" name="OMEGAGRID">   140</i>
   <i name="CSHIFT">     -0.10000000</i>
   <i type="logical" name="SELFENERGY"> F  </i>
   <i type="logical" name="LSPECTRAL"> F  </i>
   <i type="logical" name="LSPECTRALGW"> F  </i>
   <i type="logical" name="LSINGLES"> F  </i>
   <i type="logical" name="LFERMIGW"> F  </i>
   <i type="logical" name="ODDONLYGW"> F  </i>
   <i type="logical" name="EVENONLYGW"> F  </i>
   <i type="int" name="NKREDLFX">     1</i>
   <i type="int" name="NKREDLFY">     1</i>
   <i type="int" name="NKREDLFZ">     1</i>
   <i type="int" name="MAXMEM">  2800</i>
   <i type="int" name="TELESCOPE">     0</i>
   <i type="int" name="TAUPAR">     1</i>
   <i type="int" name="OMEGAPAR">    -1</i>
   <i name="LAMBDA">      1.00000000</i>
  </separator>
  <separator name="External order field" >
   <i name="OFIELD_KAPPA">      0.00000000</i>
   <v name="OFIELD_K">      0.00000000      0.00000000      0.00000000</v>
   <i name="OFIELD_Q6_NEAR">      0.00000000</i>
   <i name="OFIELD_Q6_FAR">      0.00000000</i>
   <i name="OFIELD_A">      0.00000000</i>
  </separator>
 </parameters>
 <atominfo>
  <atoms>       8 </atoms>
  <types>       1 </types>
  <array name="atoms" >
   <dimension dim="1">ion</dimension>
   <field type="string">element</field>
   <field type="int">atomtype</field>
   <set>
    <rc><c>Si</c><c>   1</c></rc>
    <rc><c>Si</c><c>   1</c></rc>
    <rc><c>Si</c><c>   1</c></rc>
    <rc><c>Si</c><c>   1</c></rc>
    <rc><c>Si</c><c>   1</c></rc>
    <rc><c>Si</c><c>   1</c></rc>
    <rc><c>Si</c><c>   1</c></rc>
    <rc><c>Si</c><c>   1</c></rc>
   </set>
  </array>
  <array name="atomtypes" >
   <dimension dim="1">type</dimension>
   <field type="int">atomspertype</field>
   <field type="string">element</field>
   <field>mass</field>
   <field>valence</field>
   <field type="string">pseudopotential</field>
   <set>
    <rc><c>   8</c><c>Si</c><c>     28.08500000</c><c>      4.00000000</c><c> PAW_PBE Si 05Jan2001                   </c></rc>
   </set>
  </array>
 </atominfo>
 <structure name="initialpos" >
  <crystal>
   <varray name="basis" >
    <v>       5.43000000       0.00000000       0.00000000 </v>
    <v>       0.00000000       5.43000000       0.00000000 </v>
    <v>       0.00000000       0.00000000       5.43000000 </v>
   </varray>
   <i name="volume">    160.10300700 </i>
   <varray name="rec_basis" >
    <v>       0.18416206       0.00000000       0.00000000 </v>
    <v>       0.00000000       0.18416206       0.00000000 </v>
    <v>       0.00000000       0.00000000       0.18416206 </v>
   </varray>
  </crystal>
  <varray name="positions" >
   <v>       0.00000000       0.00000000       0.00000000 </v>
   <v>       0.00000000       0.50000000       0.50000000 </v>
   <v>       0.50000000       0.00000000       0.50000000 </v>
   <v>       0.50000000       0.50000000       0.00000000 </v>
   <v>       0.25000000       0.25000000       0.25000000 </v>
   <v>       0.25000000       0.75000000       0.75000000 </v>
   <v>       0.75000000       0.25000000       0.75000000 </v>
   <v>       0.75000000       0.75000000       0.25000000 </v>
  </varray>
 </structure>
 <calculation>
  <scstep>
   <time name="dav">    3.17    3.18</time>
   <time name="total">    3.31    3.32</time>
   <energy>
    <i name="alphaZ">     13.45656811 </i>
    <i name="ewald">   -914.25413255 </i>
    <i name="hartreedc">    -44.00432972 </i>
    <i name="XCdc">    -74.40747923 </i>
    <i name="pawpsdc">    263.82083246 </i>
    <i name="pawaedc">   -123.07410713 </i>
    <i name="eentropy">      0.00000000 </i>
    <i name="bandstr">    118.06673707 </i>
    <i name="atom">    824.52596983 </i>
    <i name="e_fr_energy">     64.13005883 </i>
    <i name="e_wo_entrp">     64.13005883 </i>
    <i name="e_0_energy">     64.13005883 </i>
   </energy>
  </scstep>
  <scstep>
   <time name="dav">    3.92    3.93</time>
   <time name="total">    3.93    3.94</time>
   <energy>
    <i name="e_fr_energy">    -39.11529244 </i>
    <i name="e_wo_entrp">    -39.11529244 </i>
    <i name="e_0_energy">    -39.11529244 </i>
   </energy>
  </scstep>
  <scstep>
   <time name="dav">    3.75    3.77</time>
   <time name="total">    3.76    3.78</time>
   <energy>
    <i name="e_fr_energy">    -44.00214041 </i>
    <i name="e_wo_entrp">    -44.00214041 </i>
    <i name="e_0_energy">    -44.00214041 </i>
   </energy>
  </scstep>
  <scstep>
   <time name="dav">    3.68    3.70</time>
   <time name="total">    3.69    3.70</time>
   <energy>
    <i name="e_fr_energy">    -44.09599191 </i>
    <i name="e_wo_entrp">    -44.09599191 </i>
    <i name="e_0_energy">    -44.09599191 </i>
   </energy>
  </scstep>
  <scstep>
   <time name="dav">    3.69    3.71</time>
   <time name="total">    3.99    4.01</time>
   <energy>
    <i name="e_fr_energy">    -44.09827651 </i>
    <i name="e_wo_entrp">    -44.09827651 </i>
    <i name="e_0_energy">    -44.09827651 </i>
   </energy>
  </scstep>
  <scstep>
   <time name="dav">    3.48    3.50</time>
   <time name="total">    3.89    3.91</time>
   <energy>
    <i name="e_fr_energy">    -43.59899046 </i>
    <i name="e_wo_entrp">    -43.59899046 </i>
    <i name="e_0_energy">    -43.59899046 </i>
   </energy>
  </scstep>
  <scstep>
   <time name="dav">    3.39    3.40</time>
   <time name="total">    3.80    3.82</time>
   <energy>
    <i name="e_fr_energy">    -43.37098785 </i>
    <i name="e_wo_entrp">    -43.37098785 </i>
    <i name="e_0_energy">    -43.37098785 </i>
   </energy>
  </scstep>
  <scstep>
   <time name="dav">    3.55    3.57</time>
   <time name="total">    3.96    3.98</time>
   <energy>
    <i name="e_fr_energy">    -43.37713825 </i>
    <i name="e_wo_entrp">    -43.37713825 </i>
    <i name="e_0_energy">    -43.37713825 </i>
   </energy>
  </scstep>
  <scstep>
   <time name="dav">    3.69    3.71</time>
   <time name="total">    4.11    4.12</time>
   <energy>
    <i name="e_fr_energy">    -43.37748046 </i>
    <i name="e_wo_entrp">    -43.37748046 </i>
    <i name="e_0_energy">    -43.37748046 </i>
   </energy>
  </scstep>
  <scstep>
   <time name="dav">    3.49    3.51</time>
   <time name="total">    3.90    3.92</time>
   <energy>
    <i name="e_fr_energy">    -43.37760415 </i>
    <i name="e_wo_entrp">    -43.37760415 </i>
    <i name="e_0_energy">    -43.37760415 </i>
   </energy>
  </scstep>
  <scstep>
   <time name="dav">    3.59    3.61</time>
   <time name="total">    4.01    4.02</time>
   <energy>
    <i name="e_fr_energy">    -43.37760538 </i>
    <i name="e_wo_entrp">    -43.37760538 </i>
    <i name="e_0_energy">    -43.37760538 </i>
   </energy>
  </scstep>
  <scstep>
   <time name="dav">    2.69    2.70</time>
   <time name="total">    2.81    2.82</time>
   <energy>
    <i name="alphaZ">     13.45656811 </i>
    <i name="ewald">   -914.25413255 </i>
    <i name="hartreedc">    -59.66737435 </i>
    <i name="XCdc">    -71.84627141 </i>
    <i name="pawpsdc">    297.19111762 </i>
    <i name="pawaedc">   -157.34170517 </i>
    <i name="eentropy">      0.00000000 </i>
    <i name="bandstr">     24.55822246 </i>
    <i name="atom">    824.52596983 </i>
    <i name="e_fr_energy">    -43.37760547 </i>
    <i name="e_wo_entrp">    -43.37760547 </i>
    <i name="e_0_energy">    -43.37760547 </i>
   </energy>
  </scstep>
  <structure>
   <crystal>
    <varray name="basis" >
     <v>       5.43000000       0.00000000       0.00000000 </v>
     <v>       0.00000000       5.43000000       0.00000000 </v>
     <v>       0.00000000       0.00000000       5.43000000 </v>
    </varray>
    <i name="volume">    160.10300700 </i>
    <varray name="rec_basis" >
     <v>       0.18416206       0.00000000       0.00000000 </v>
     <v>       0.00000000       0.18416206       0.00000000 </v>
     <v>       0.00000000       0.00000000       0.18416206 </v>
    </varray>
   </crystal>
   <varray name="positions" >
    <v>       0.00000000       0.00000000       0.00000000 </v>
    <v>       0.00000000       0.50000000       0.50000000 </v>
    <v>       0.50000000       0.00000000       0.50000000 </v>
    <v>       0.50000000       0.50000000       0.00000000 </v>
    <v>       0.25000000       0.25000000       0.25000000 </v>
    <v>       0.25000000       0.75000000       0.75000000 </v>
    <v>       0.75000000       0.25000000       0.75000000 </v>
    <v>       0.75000000       0.75000000       0.25000000 </v>
   </varray>
  </structure>
  <varray name="forces" >
   <v>      -0.00000000       0.00000000      -0.00000000 </v>
   <v>       0.00000000       0.00000000      -0.00000000 </v>
   <v>      -0.00000000      -0.00000000       0.00000000 </v>
   <v>       0.00000000       0.00000000       0.00000000 </v>
   <v>      -0.00000000      -0.00000000      -0.00000000 </v>
   <v>       0.00000000       0.00000000      -0.00000000 </v>
   <v>      -0.00000000       0.00000000      -0.00000000 </v>
   <v>       0.00000000      -0.00000000       0.00000000 </v>
  </varray>
  <varray name="stress" >
   <v>      19.70410439      -0.00000000       0.00000000 </v>
   <v>       0.00000000      19.70410439      -0.00000000 </v>
   <v>      -0.00000000       0.00000000      19.70410439 </v>
  </varray>
  <energy>
   <i name="e_fr_energy">    -43.37760547 </i>
   <i name="e_wo_entrp">    -43.37760547 </i>
   <i name="e_0_energy">      0.00000000 </i>
  </energy>
  <time name="totalsc">   48.26   48.51</time>
  <eigenvalues>
   <array>
    <dimension dim="1">band</dimension>
    <dimension dim="2">kpoint</dimension>
    <dimension dim="3">spin</dimension>
    <field>eigene</field>
    <field>occ</field>
    <set>
     <set comment="spin 1">
      <set comment="kpoint 1">
       <r>   -6.1304    1.0000 </r>
       <r>   -1.9847    1.0000 </r>
       <r>   -1.9847    1.0000 </r>
       <r>   -1.9847    1.0000 </r>
       <r>   -1.9847    1.0000 </r>
       <r>   -1.9847    1.0000 </r>
       <r>   -1.9847    1.0000 </r>
       <r>    2.9797    1.0000 </r>
       <r>    2.9797    1.0000 </r>
       <r>    2.9797    1.0000 </r>
       <r>    2.9797    1.0000 </r>
       <r>    2.9797    1.0000 </r>
       <r>    2.9797    1.0000 </r>
       <r>    5.8297    1.0000 </r>
       <r>    5.8297    1.0000 </r>
       <r>    5.8297    1.0000 </r>
       <r>    6.5401    0.0000 </r>
       <r>    6.5401    0.0000 </r>
       <r>    6.5401    0.0000 </r>
       <r>    6.5401    0.0000 </r>
       <r>    6.5401    0.0000 </r>
      </set>
      <set comment="kpoint 2">
       <r>   -6.0866    1.0000 </r>
       <r>   -2.7312    1.0000 </r>
       <r>   -1.9703    1.0000 </r>
       <r>   -1.9703    1.0000 </r>
       <r>   -1.9703    1.0000 </r>
       <r>   -1.9703    1.0000 </r>
       <r>   -1.1861    1.0000 </r>
       <r>    2.8550    1.0000 </r>
       <r>    2.8550    1.0000 </r>
       <r>    2.8550    1.0000 </r>
       <r>    2.8550    1.0000 </r>
       <r>    3.0192    1.0000 </r>
       <r>    3.0192    1.0000 </r>
       <r>    5.5505    1.0000 </r>
       <r>    5.6541    1.0000 </r>
       <r>    5.6541    1.0000 </r>
       <r>    6.4201    0.0000 </r>
       <r>    6.7753    0.0000 </r>
       <r>    6.7753    0.0000 </r>
       <r>    6.7753    0.0000 </r>
       <r>    6.7758    0.0000 </r>
      </set>
      <set comment="kpoint 3">
       <r>   -5.9555    1.0000 </r>
       <r>   -3.4171    1.0000 </r>
       <r>   -1.9315    1.0000 </r>
       <r>   -1.9315    1.0000 </r>
       <r>   -1.9315    1.0000 </r>
       <r>   -1.9315    1.0000 </r>
       <r>   -0.3453    1.0000 </r>
       <r>    2.5702    1.0000 </r>
       <r>    2.5702    1.0000 </r>
       <r>    2.5702    1.0000 </r>
       <r>    2.5702    1.0000 </r>
       <r>    3.1372    1.0000 </r>
       <r>    3.1372    1.0000 </r>
       <r>    4.8933    1.0000 </r>
       <r>    5.2537    1.0000 </r>
       <r>    5.2537    1.0000 </r>
       <r>    6.4113    0.0000 </r>
       <r>    7.1412    0.0000 </r>
       <r>    7.3938    0.0000 </r>
       <r>    7.3938    0.0000 </r>
       <r>    7.3938    0.0000 </r>
      </set>
      <set comment="kpoint 4">
       <r>   -5.7378    1.0000 </r>
       <r>   -4.0354    1.0000 </r>
       <r>   -1.8810    1.0000 </r>
       <r>   -1.8810    1.0000 </r>
       <r>   -1.8810    1.0000 </r>
       <r>   -1.8810    1.0000 </r>
       <r>    0.5264    1.0000 </r>
       <r>    2.2712    1.0000 </r>
       <r>    2.2712    1.0000 </r>
       <r>    2.2712    1.0000 </r>
       <r>    2.2712    1.0000 </r>
       <r>    3.3323    1.0000 </r>
       <r>    3.3323    1.0000 </r>
       <r>    4.0807    1.0000 </r>
       <r>    4.7911    1.0000 </r>
       <r>    4.7911    1.0000 </r>
       <r>    6.5055    0.0000 </r>
       <r>    7.6312    0.0000 </r>
       <r>    7.6606    0.0000 </r>
       <r>    8.2559    0.0000 </r>
       <r>    8.2559    0.0000 </r>
      </set>
      <set comment="kpoint 5">
       <r>   -5.4346    1.0000 </r>
       <r>   -4.5805    1.0000 </r>
       <r>   -1.8378    1.0000 </r>
       <r>   -1.8378    1.0000 </r>
       <r>   -1.8378    1.0000 </r>
       <r>   -1.8378    1.0000 </r>
       <r>    1.4173    1.0000 </r>
       <r>    2.0564    1.0000 </r>
       <r>    2.0564    1.0000 </r>
       <r>    2.0564    1.0000 </r>
       <r>    2.0564    1.0000 </r>
       <r>    3.2093    1.0000 </r>
       <r>    3.6019    1.0000 </r>
       <r>    3.6019    1.0000 </r>
       <r>    4.3429    1.0000 </r>
       <r>    4.3429    1.0000 </r>
       <r>    6.6931    0.0000 </r>
       <r>    7.2936    0.0000 </r>
       <r>    8.2452    0.0000 </r>
       <r>    9.2624    0.0000 </r>
       <r>    9.2624    0.0000 </r>
      </set>
      <set comment="kpoint 6">
       <r>   -5.0480    1.0000 </r>
       <r>   -5.0480    1.0000 </r>
       <r>   -1.8207    1.0000 </r>
       <r>   -1.8207    1.0000 </r>
       <r>   -1.8207    1.0000 </r>
       <r>   -1.8207    1.0000 </r>
       <r>    1.9789    1.0000 </r>
       <r>    1.9789    1.0000 </r>
       <r>    1.9789    1.0000 </r>
       <r>    1.9789    1.0000 </r>
       <r>    2.3157    1.0000 </r>
       <r>    2.3157    1.0000 </r>
       <r>    3.9414    1.0000 </r>
       <r>    3.9414    1.0000 </r>
       <r>    3.9414    1.0000 </r>
       <r>    3.9414    1.0000 </r>
       <r>    6.9616    0.0000 </r>
       <r>    6.9616    0.0000 </r>
       <r>    8.9644    0.0000 </r>
       <r>    8.9644    0.0000 </r>
       <r>   10.0986    0.0000 </r>
      </set>
      <set comment="kpoint 7">
       <r>   -6.0430    1.0000 </r>
       <r>   -2.7075    1.0000 </r>
       <r>   -2.7075    1.0000 </r>
       <r>   -2.0260    1.0000 </r>
       <r>   -1.8900    1.0000 </r>
       <r>   -1.1855    1.0000 </r>
       <r>   -1.1855    1.0000 </r>
       <r>    2.4985    1.0000 </r>
       <r>    2.8746    1.0000 </r>
       <r>    2.8746    1.0000 </r>
       <r>    2.9208    1.0000 </r>
       <r>    2.9208    1.0000 </r>
       <r>    3.0497    1.0000 </r>
       <r>    5.0930    1.0000 </r>
       <r>    5.4784    1.0000 </r>
       <r>    5.7901    1.0000 </r>
       <r>    6.6211    0.0000 </r>
       <r>    6.6663    0.0000 </r>
       <r>    6.6663    0.0000 </r>
       <r>    6.9999    0.0000 </r>
       <r>    6.9999    0.0000 </r>
      </set>
      <set comment="kpoint 8">
       <r>   -5.9122    1.0000 </r>
       <r>   -3.3870    1.0000 </r>
       <r>   -2.6394    1.0000 </r>
       <r>   -2.0692    1.0000 </r>
       <r>   -1.7812    1.0000 </r>
       <r>   -1.1895    1.0000 </r>
       <r>   -0.3654    1.0000 </r>
       <r>    2.1270    1.0000 </r>
       <r>    2.5428    1.0000 </r>
       <r>    2.7005    1.0000 </r>
       <r>    2.9780    1.0000 </r>
       <r>    2.9952    1.0000 </r>
       <r>    3.0732    1.0000 </r>
       <r>    4.4436    1.0000 </r>
       <r>    5.0765    1.0000 </r>
       <r>    5.5486    1.0000 </r>
       <r>    6.6653    0.0000 </r>
       <r>    6.9345    0.0000 </r>
       <r>    7.3041    0.0000 </r>
       <r>    7.3461    0.0000 </r>
       <r>    7.5920    0.0000 </r>
      </set>
      <set comment="kpoint 9">
       <r>   -5.6952    1.0000 </r>
       <r>   -4.0008    1.0000 </r>
       <r>   -2.5361    1.0000 </r>
       <r>   -2.1181    1.0000 </r>
       <r>   -1.6486    1.0000 </r>
       <r>   -1.2128    1.0000 </r>
       <r>    0.4754    1.0000 </r>
       <r>    1.8406    1.0000 </r>
       <r>    2.1804    1.0000 </r>
       <r>    2.4889    1.0000 </r>
       <r>    2.7812    1.0000 </r>
       <r>    3.1630    1.0000 </r>
       <r>    3.3132    1.0000 </r>
       <r>    3.7243    1.0000 </r>
       <r>    4.6118    1.0000 </r>
       <r>    5.0679    1.0000 </r>
       <r>    6.7642    0.0000 </r>
       <r>    7.6247    0.0000 </r>
       <r>    7.8181    0.0000 </r>
       <r>    7.9072    0.0000 </r>
       <r>    8.1815    0.0000 </r>
      </set>
      <set comment="kpoint 10">
       <r>   -5.3932    1.0000 </r>
       <r>   -4.5428    1.0000 </r>
       <r>   -2.4131    1.0000 </r>
       <r>   -2.1898    1.0000 </r>
       <r>   -1.5058    1.0000 </r>
       <r>   -1.2721    1.0000 </r>
       <r>    1.3205    1.0000 </r>
       <r>    1.6951    1.0000 </r>
       <r>    1.8849    1.0000 </r>
       <r>    2.3761    1.0000 </r>
       <r>    2.5510    1.0000 </r>
       <r>    2.9578    1.0000 </r>
       <r>    3.4260    1.0000 </r>
       <r>    3.6407    1.0000 </r>
       <r>    4.1626    1.0000 </r>
       <r>    4.5399    1.0000 </r>
       <r>    6.9535    0.0000 </r>
       <r>    7.5478    0.0000 </r>
       <r>    8.4131    0.0000 </r>
       <r>    8.5486    0.0000 </r>
       <r>    9.2041    0.0000 </r>
      </set>
      <set comment="kpoint 11">
       <r>   -5.0081    1.0000 </r>
       <r>   -5.0081    1.0000 </r>
       <r>   -2.2912    1.0000 </r>
       <r>   -2.2912    1.0000 </r>
       <r>   -1.3733    1.0000 </r>
       <r>   -1.3733    1.0000 </r>
       <r>    1.7125    1.0000 </r>
       <r>    1.7125    1.0000 </r>
       <r>    2.1529    1.0000 </r>
       <r>    2.1529    1.0000 </r>
       <r>    2.3996    1.0000 </r>
       <r>    2.3996    1.0000 </r>
       <r>    3.7621    1.0000 </r>
       <r>    3.7621    1.0000 </r>
       <r>    4.0532    1.0000 </r>
       <r>    4.0532    1.0000 </r>
       <r>    7.2207    0.0000 </r>
       <r>    7.2207    0.0000 </r>
       <r>    9.1101    0.0000 </r>
       <r>    9.1101    0.0000 </r>
       <r>    9.5679    0.0000 </r>
      </set>
      <set comment="kpoint 12">
       <r>   -5.7828    1.0000 </r>
       <r>   -3.2987    1.0000 </r>
       <r>   -3.2987    1.0000 </r>
       <r>   -2.2117    1.0000 </r>
       <r>   -1.6066    1.0000 </r>
       <r>   -0.4309    1.0000 </r>
       <r>   -0.4309    1.0000 </r>
       <r>    1.7673    1.0000 </r>
       <r>    2.6130    1.0000 </r>
       <r>    2.6130    1.0000 </r>
       <r>    2.9393    1.0000 </r>
       <r>    2.9393    1.0000 </r>
       <r>    3.2559    1.0000 </r>
       <r>    3.8015    1.0000 </r>
       <r>    4.6703    1.0000 </r>
       <r>    5.6534    1.0000 </r>
       <r>    6.8599    0.0000 </r>
       <r>    7.3157    0.0000 </r>
       <r>    7.3157    0.0000 </r>
       <r>    7.9056    0.0000 </r>
       <r>    7.9056    0.0000 </r>
      </set>
      <set comment="kpoint 13">
       <r>   -5.5679    1.0000 </r>
       <r>   -3.8986    1.0000 </r>
       <r>   -3.1585    1.0000 </r>
       <r>   -2.3753    1.0000 </r>
       <r>   -1.4041    1.0000 </r>
       <r>   -0.5518    1.0000 </r>
       <r>    0.3247    1.0000 </r>
       <r>    1.5483    1.0000 </r>
       <r>    2.2060    1.0000 </r>
       <r>    2.7752    1.0000 </r>
       <r>    2.8396    1.0000 </r>
       <r>    3.1343    1.0000 </r>
       <r>    3.2677    1.0000 </r>
       <r>    3.2896    1.0000 </r>
       <r>    4.2013    1.0000 </r>
       <r>    5.3719    1.0000 </r>
       <r>    7.2448    0.0000 </r>
       <r>    7.4206    0.0000 </r>
       <r>    8.2006    0.0000 </r>
       <r>    8.3394    0.0000 </r>
       <r>    8.5153    0.0000 </r>
      </set>
      <set comment="kpoint 14">
       <r>   -5.2693    1.0000 </r>
       <r>   -4.4307    1.0000 </r>
       <r>   -2.9777    1.0000 </r>
       <r>   -2.5656    1.0000 </r>
       <r>   -1.1791    1.0000 </r>
       <r>   -0.7288    1.0000 </r>
       <r>    1.0610    1.0000 </r>
       <r>    1.4947    1.0000 </r>
       <r>    1.8521    1.0000 </r>
       <r>    2.4587    1.0000 </r>
       <r>    2.8391    1.0000 </r>
       <r>    3.0238    1.0000 </r>
       <r>    3.1183    1.0000 </r>
       <r>    3.7460    1.0000 </r>
       <r>    3.7503    1.0000 </r>
       <r>    4.8598    1.0000 </r>
       <r>    7.6090    0.0000 </r>
       <r>    7.9957    0.0000 </r>
       <r>    8.1803    0.0000 </r>
       <r>    8.8916    0.0000 </r>
       <r>    9.2268    0.0000 </r>
      </set>
      <set comment="kpoint 15">
       <r>   -4.8891    1.0000 </r>
       <r>   -4.8891    1.0000 </r>
       <r>   -2.7731    1.0000 </r>
       <r>   -2.7731    1.0000 </r>
       <r>   -0.9464    1.0000 </r>
       <r>   -0.9464    1.0000 </r>
       <r>    1.6034    1.0000 </r>
       <r>    1.6034    1.0000 </r>
       <r>    1.7709    1.0000 </r>
       <r>    1.7709    1.0000 </r>
       <r>    2.9456    1.0000 </r>
       <r>    2.9456    1.0000 </r>
       <r>    3.3521    1.0000 </r>
       <r>    3.3521    1.0000 </r>
       <r>    4.2861    1.0000 </r>
       <r>    4.2861    1.0000 </r>
       <r>    7.8682    0.0000 </r>
       <r>    7.8682    0.0000 </r>
       <r>    8.9626    0.0000 </r>
       <r>    8.9626    0.0000 </r>
       <r>    9.5239    0.0000 </r>
      </set>
      <set comment="kpoint 16">
       <r>   -5.3570    1.0000 </r>
       <r>   -3.7328    1.0000 </r>
       <r>   -3.7328    1.0000 </r>
       <r>   -2.6575    1.0000 </r>
       <r>   -1.1361    1.0000 </r>
       <r>    0.0876    1.0000 </r>
       <r>    0.0876    1.0000 </r>
       <r>    1.4204    1.0000 </r>
       <r>    2.3382    1.0000 </r>
       <r>    2.3382    1.0000 </r>
       <r>    2.5182    1.0000 </r>
       <r>    3.3173    1.0000 </r>
       <r>    3.3173    1.0000 </r>
       <r>    3.5860    1.0000 </r>
       <r>    3.7289    1.0000 </r>
       <r>    5.3860    1.0000 </r>
       <r>    7.2430    0.0000 </r>
       <r>    8.3053    0.0000 </r>
       <r>    8.3053    0.0000 </r>
       <r>    8.8968    0.0000 </r>
       <r>    9.1086    0.0000 </r>
      </set>
      <set comment="kpoint 17">
       <r>   -5.0644    1.0000 </r>
       <r>   -4.2471    1.0000 </r>
       <r>   -3.5113    1.0000 </r>
       <r>   -2.9544    1.0000 </r>
       <r>   -0.8414    1.0000 </r>
       <r>   -0.2073    1.0000 </r>
       <r>    0.7034    1.0000 </r>
       <r>    1.4566    1.0000 </r>
       <r>    1.9074    1.0000 </r>
       <r>    1.9439    1.0000 </r>
       <r>    2.5675    1.0000 </r>
       <r>    3.2780    1.0000 </r>
       <r>    3.4155    1.0000 </r>
       <r>    3.6542    1.0000 </r>
       <r>    3.8927    1.0000 </r>
       <r>    5.0539    1.0000 </r>
       <r>    7.6862    0.0000 </r>
       <r>    8.4858    0.0000 </r>
       <r>    9.0113    0.0000 </r>
       <r>    9.0510    0.0000 </r>
       <r>    9.3271    0.0000 </r>
      </set>
      <set comment="kpoint 18">
       <r>   -4.6930    1.0000 </r>
       <r>   -4.6930    1.0000 </r>
       <r>   -3.2460    1.0000 </r>
       <r>   -3.2460    1.0000 </r>
       <r>   -0.5262    1.0000 </r>
       <r>   -0.5262    1.0000 </r>
       <r>    1.3054    1.0000 </r>
       <r>    1.3054    1.0000 </r>
       <r>    1.6395    1.0000 </r>
       <r>    1.6395    1.0000 </r>
       <r>    2.8847    1.0000 </r>
       <r>    2.8847    1.0000 </r>
       <r>    3.5545    1.0000 </r>
       <r>    3.5545    1.0000 </r>
       <r>    4.5054    1.0000 </r>
       <r>    4.5054    1.0000 </r>
       <r>    8.4787    0.0000 </r>
       <r>    8.4787    0.0000 </r>
       <r>    8.7285    0.0000 </r>
       <r>    8.7285    0.0000 </r>
       <r>    9.4515    0.0000 </r>
      </set>
      <set comment="kpoint 19">
       <r>   -4.7810    1.0000 </r>
       <r>   -3.9972    1.0000 </r>
       <r>   -3.9972    1.0000 </r>
       <r>   -3.3360    1.0000 </r>
       <r>   -0.4815    1.0000 </r>
       <r>    0.3049    1.0000 </r>
       <r>    0.3049    1.0000 </r>
       <r>    1.3571    1.0000 </r>
       <r>    1.5665    1.0000 </r>
       <r>    2.1465    1.0000 </r>
       <r>    2.1465    1.0000 </r>
       <r>    2.8308    1.0000 </r>
       <r>    4.0158    1.0000 </r>
       <r>    4.0418    1.0000 </r>
       <r>    4.0418    1.0000 </r>
       <r>    4.9854    1.0000 </r>
       <r>    7.7397    0.0000 </r>
       <r>    8.7270    0.0000 </r>
       <r>    9.0140    0.0000 </r>
       <r>    9.0140    0.0000 </r>
       <r>    9.4920    0.0000 </r>
      </set>
      <set comment="kpoint 20">
       <r>   -4.4233    1.0000 </r>
       <r>   -4.4233    1.0000 </r>
       <r>   -3.6893    1.0000 </r>
       <r>   -3.6893    1.0000 </r>
       <r>   -0.0969    1.0000 </r>
       <r>   -0.0969    1.0000 </r>
       <r>    0.8230    1.0000 </r>
       <r>    0.8230    1.0000 </r>
       <r>    1.8039    1.0000 </r>
       <r>    1.8039    1.0000 </r>
       <r>    2.4469    1.0000 </r>
       <r>    2.4469    1.0000 </r>
       <r>    4.1212    1.0000 </r>
       <r>    4.1212    1.0000 </r>
       <r>    4.6133    1.0000 </r>
       <r>    4.6133    1.0000 </r>
       <r>    8.2145    0.0000 </r>
       <r>    8.2145    0.0000 </r>
       <r>    8.7309    0.0000 </r>
       <r>    8.7309    0.0000 </r>
       <r>    9.7053    0.0000 </r>
      </set>
      <set comment="kpoint 21">
       <r>   -4.0859    1.0000 </r>
       <r>   -4.0859    1.0000 </r>
       <r>   -4.0859    1.0000 </r>
       <r>   -4.0859    1.0000 </r>
       <r>    0.3523    1.0000 </r>
       <r>    0.3523    1.0000 </r>
       <r>    0.3523    1.0000 </r>
       <r>    0.3523    1.0000 </r>
       <r>    2.0790    1.0000 </r>
       <r>    2.0790    1.0000 </r>
       <r>    2.0790    1.0000 </r>
       <r>    2.0790    1.0000 </r>
       <r>    4.5035    1.0000 </r>
       <r>    4.5035    1.0000 </r>
       <r>    4.5035    1.0000 </r>
       <r>    4.5035    1.0000 </r>
       <r>    8.2822    0.0000 </r>
       <r>    8.2822    0.0000 </r>
       <r>    8.2822    0.0000 </r>
       <r>    8.2822    0.0000 </r>
       <r>   10.6234    0.0000 </r>
      </set>
      <set comment="kpoint 22">
       <r>   -5.9994    1.0000 </r>
       <r>   -2.6878    1.0000 </r>
       <r>   -2.6878    1.0000 </r>
       <r>   -2.6878    1.0000 </r>
       <r>   -1.1860    1.0000 </r>
       <r>   -1.1860    1.0000 </r>
       <r>   -1.1860    1.0000 </r>
       <r>    2.5509    1.0000 </r>
       <r>    2.5509    1.0000 </r>
       <r>    2.5509    1.0000 </r>
       <r>    3.0886    1.0000 </r>
       <r>    3.0886    1.0000 </r>
       <r>    3.0886    1.0000 </r>
[...]
       <r>    4.5857    1.0000 </r>
       <r>    4.5857    1.0000 </r>
       <r>    4.5857    1.0000 </r>
       <r>    4.5857    1.0000 </r>
       <r>    8.0465    0.0000 </r>
       <r>    8.0465    0.0000 </r>
       <r>    8.0465    0.0000 </r>
       <r>    8.0465    0.0000 </r>
       <r>    9.2769    0.0000 </r>
      </set>
      <set comment="kpoint 53">
       <r>   -4.2498    1.0000 </r>
       <r>   -3.7437    1.0000 </r>
       <r>   -3.7437    1.0000 </r>
       <r>   -3.7437    1.0000 </r>
       <r>   -0.9915    1.0000 </r>
       <r>   -0.9915    1.0000 </r>
       <r>   -0.9915    1.0000 </r>
       <r>   -0.4396    1.0000 </r>
       <r>    3.8553    1.0000 </r>
       <r>    3.8553    1.0000 </r>
       <r>    3.8553    1.0000 </r>
       <r>    4.3859    1.0000 </r>
       <r>    4.3859    1.0000 </r>
       <r>    4.3859    1.0000 </r>
       <r>    4.7041    1.0000 </r>
       <r>    4.7041    1.0000 </r>
       <r>    7.4541    0.0000 </r>
       <r>    7.9836    0.0000 </r>
       <r>    7.9836    0.0000 </r>
       <r>    7.9836    0.0000 </r>
       <r>    9.1464    0.0000 </r>
      </set>
      <set comment="kpoint 54">
       <r>   -3.9961    1.0000 </r>
       <r>   -3.9961    1.0000 </r>
       <r>   -3.7108    1.0000 </r>
       <r>   -3.7108    1.0000 </r>
       <r>   -1.0934    1.0000 </r>
       <r>   -1.0934    1.0000 </r>
       <r>   -0.7865    1.0000 </r>
       <r>   -0.7865    1.0000 </r>
       <r>    3.9731    1.0000 </r>
       <r>    3.9731    1.0000 </r>
       <r>    4.4685    1.0000 </r>
       <r>    4.4685    1.0000 </r>
       <r>    4.4688    1.0000 </r>
       <r>    4.4688    1.0000 </r>
       <r>    4.5489    1.0000 </r>
       <r>    4.5489    1.0000 </r>
       <r>    7.6403    0.0000 </r>
       <r>    7.6403    0.0000 </r>
       <r>    7.9348    0.0000 </r>
       <r>    7.9348    0.0000 </r>
       <r>    9.0502    0.0000 </r>
      </set>
      <set comment="kpoint 55">
       <r>   -3.8313    1.0000 </r>
       <r>   -3.8313    1.0000 </r>
       <r>   -3.8313    1.0000 </r>
       <r>   -3.8313    1.0000 </r>
       <r>   -1.0328    1.0000 </r>
       <r>   -1.0328    1.0000 </r>
       <r>   -1.0328    1.0000 </r>
       <r>   -1.0328    1.0000 </r>
       <r>    4.3529    1.0000 </r>
       <r>    4.3529    1.0000 </r>
       <r>    4.3529    1.0000 </r>
       <r>    4.3529    1.0000 </r>
       <r>    4.6193    1.0000 </r>
       <r>    4.6193    1.0000 </r>
       <r>    4.6193    1.0000 </r>
       <r>    4.6193    1.0000 </r>
       <r>    7.6112    0.0000 </r>
       <r>    7.6112    0.0000 </r>
       <r>    7.6112    0.0000 </r>
       <r>    7.6112    0.0000 </r>
       <r>    9.1700    0.0000 </r>
      </set>
      <set comment="kpoint 56">
       <r>   -3.7982    1.0000 </r>
       <r>   -3.7982    1.0000 </r>
       <r>   -3.7982    1.0000 </r>
       <r>   -3.7982    1.0000 </r>
       <r>   -1.1378    1.0000 </r>
       <r>   -1.1378    1.0000 </r>
       <r>   -1.1378    1.0000 </r>
       <r>   -1.1378    1.0000 </r>
       <r>    4.6325    1.0000 </r>
       <r>    4.6325    1.0000 </r>
       <r>    4.6325    1.0000 </r>
       <r>    4.6325    1.0000 </r>
       <r>    4.6325    1.0000 </r>
       <r>    4.6325    1.0000 </r>
       <r>    4.6325    1.0000 </r>
       <r>    4.6325    1.0000 </r>
       <r>    7.3720    0.0000 </r>
       <r>    7.3720    0.0000 </r>
       <r>    7.3720    0.0000 </r>
       <r>    7.3720    0.0000 </r>
       <r>    9.1710    0.0000 </r>
      </set>
     </set>
    </set>
   </array>
  </eigenvalues>
  <separator name="orbital magnetization" >
   <v name="MAGDIPOLOUT">      0.00000000      0.00000000      0.00000000</v>
  </separator>
  <dos>
   <i name="efermi">      5.85246231 </i>
   <total>
    <array>
     <dimension dim="1">gridpoints</dimension>
     <dimension dim="2">spin</dimension>
     <field>energy</field>
     <field>total</field>
     <field>integrated</field>
     <set>
      <set comment="spin 1">
       <r>    -8.1304     0.0000     0.0000 </r>
       <r>    -8.0612     0.0000     0.0000 </r>
       <r>    -7.9921     0.0000     0.0000 </r>
       <r>    -7.9229     0.0000     0.0000 </r>
       <r>    -7.8537     0.0000     0.0000 </r>
       <r>    -7.7845     0.0000     0.0000 </r>
       <r>    -7.7153     0.0000     0.0000 </r>
       <r>    -7.6462     0.0000     0.0000 </r>
       <r>    -7.5770     0.0000     0.0000 </r>
       <r>    -7.5078     0.0000     0.0000 </r>
       <r>    -7.4386     0.0000     0.0000 </r>
       <r>    -7.3694     0.0000     0.0000 </r>
       <r>    -7.3003     0.0000     0.0000 </r>
       <r>    -7.2311     0.0000     0.0000 </r>
       <r>    -7.1619     0.0000     0.0000 </r>
       <r>    -7.0927     0.0000     0.0000 </r>
       <r>    -7.0235     0.0000     0.0000 </r>
       <r>    -6.9544     0.0000     0.0000 </r>
       <r>    -6.8852     0.0000     0.0000 </r>
       <r>    -6.8160     0.0000     0.0000 </r>
       <r>    -6.7468     0.0000     0.0000 </r>
       <r>    -6.6776     0.0000     0.0000 </r>
       <r>    -6.6085     0.0000     0.0000 </r>
       <r>    -6.5393     0.0000     0.0000 </r>
       <r>    -6.4701     0.0000     0.0000 </r>
       <r>    -6.4009     0.0000     0.0000 </r>
       <r>    -6.3317     0.0000     0.0000 </r>
       <r>    -6.2626     0.0000     0.0000 </r>
       <r>    -6.1934     0.0000     0.0000 </r>
       <r>    -6.1242     0.0037     0.0000 </r>
       <r>    -6.0550     0.3527     0.0116 </r>
       <r>    -5.9859     0.4676     0.0390 </r>
       <r>    -5.9167     0.6287     0.0780 </r>
       <r>    -5.8475     0.6988     0.1232 </r>
       <r>    -5.7783     0.7997     0.1751 </r>
       <r>    -5.7091     0.9071     0.2343 </r>
       <r>    -5.6400     0.9625     0.2988 </r>
       <r>    -5.5708     1.0283     0.3677 </r>
       <r>    -5.5016     1.1053     0.4414 </r>
       <r>    -5.4324     1.1926     0.5208 </r>
       <r>    -5.3632     1.2451     0.6054 </r>
       <r>    -5.2941     1.3007     0.6934 </r>
       <r>    -5.2249     1.3596     0.7854 </r>
       <r>    -5.1557     1.4266     0.8817 </r>
       <r>    -5.0865     1.4944     0.9827 </r>
       <r>    -5.0173     1.5625     1.0885 </r>
       <r>    -4.9482     1.6139     1.1983 </r>
       <r>    -4.8790     1.6682     1.3119 </r>
       <r>    -4.8098     1.7260     1.4293 </r>
       <r>    -4.7406     1.7877     1.5507 </r>
       <r>    -4.6714     1.8572     1.6768 </r>
       <r>    -4.6023     1.9318     1.8078 </r>
       <r>    -4.5331     1.9988     1.9440 </r>
       <r>    -4.4639     2.0603     2.0843 </r>
       <r>    -4.3947     2.2368     2.2306 </r>
       <r>    -4.3255     2.3564     2.3899 </r>
       <r>    -4.2564     2.4180     2.5555 </r>
       <r>    -4.1872     2.5969     2.7301 </r>
       <r>    -4.1180     2.6019     2.9106 </r>
       <r>    -4.0488     2.5259     3.0878 </r>
       <r>    -3.9797     2.4786     3.2607 </r>
       <r>    -3.9105     2.5272     3.4335 </r>
       <r>    -3.8413     2.9222     3.6217 </r>
       <r>    -3.7721     3.6560     3.8500 </r>
       <r>    -3.7029     3.8297     4.1122 </r>
       <r>    -3.6338     3.2273     4.3495 </r>
       <r>    -3.5646     3.4813     4.5810 </r>
       <r>    -3.4954     3.6346     4.8367 </r>
       <r>    -3.4262     2.9225     5.0522 </r>
       <r>    -3.3570     3.0716     5.2542 </r>
       <r>    -3.2879     2.8270     5.4600 </r>
       <r>    -3.2187     2.9664     5.6582 </r>
       <r>    -3.1495     3.3269     5.8784 </r>
       <r>    -3.0803     2.6523     6.0795 </r>
       <r>    -3.0111     2.4271     6.2548 </r>
       <r>    -2.9420     2.3202     6.4190 </r>
       <r>    -2.8728     2.2121     6.5757 </r>
       <r>    -2.8036     2.1161     6.7253 </r>
       <r>    -2.7344     2.0644     6.8695 </r>
       <r>    -2.6652     2.5218     7.0306 </r>
       <r>    -2.5961     2.2571     7.2132 </r>
       <r>    -2.5269     1.9402     7.3576 </r>
       <r>    -2.4577     1.6838     7.4826 </r>
       <r>    -2.3885     1.4681     7.5917 </r>
       <r>    -2.3193     1.2645     7.6861 </r>
       <r>    -2.2502     1.0708     7.7669 </r>
       <r>    -2.1810     0.8964     7.8348 </r>
       <r>    -2.1118     0.7369     7.8911 </r>
       <r>    -2.0426     0.6845     7.9394 </r>
       <r>    -1.9735     0.5115     7.9859 </r>
       <r>    -1.9043     0.3172     8.0109 </r>
       <r>    -1.8351     0.3253     8.0321 </r>
       <r>    -1.7659     0.4680     8.0594 </r>
       <r>    -1.6967     0.6130     8.0968 </r>
       <r>    -1.6276     0.7591     8.1443 </r>
       <r>    -1.5584     0.9067     8.2018 </r>
       <r>    -1.4892     1.0734     8.2702 </r>
       <r>    -1.4200     1.2649     8.3509 </r>
       <r>    -1.3508     1.4991     8.4460 </r>
       <r>    -1.2817     1.8414     8.5609 </r>
       <r>    -1.2125     2.4128     8.7073 </r>
       <r>    -1.1433     2.4697     8.9361 </r>
       <r>    -1.0741     3.2903     9.1198 </r>
       <r>    -1.0049     4.5076     9.3836 </r>
       <r>    -0.9358     7.5201     9.7845 </r>
       <r>    -0.8666     5.4271    10.2419 </r>
       <r>    -0.7974     4.4656    10.5818 </r>
       <r>    -0.7282     3.8078    10.8662 </r>
       <r>    -0.6590     3.4295    11.1146 </r>
       <r>    -0.5899     3.2636    11.3449 </r>
       <r>    -0.5207     3.0203    11.5648 </r>
       <r>    -0.4515     2.7415    11.7616 </r>
       <r>    -0.3823     2.6732    11.9524 </r>
       <r>    -0.3131     2.3267    12.1193 </r>
       <r>    -0.2440     2.2543    12.2776 </r>
       <r>    -0.1748     2.1561    12.4307 </r>
       <r>    -0.1056     2.0361    12.5756 </r>
       <r>    -0.0364     1.9012    12.7118 </r>
       <r>     0.0327     1.7970    12.8395 </r>
       <r>     0.1019     1.7358    12.9614 </r>
       <r>     0.1711     1.6940    13.0800 </r>
       <r>     0.2403     1.6594    13.1962 </r>
       <r>     0.3095     1.5746    13.3081 </r>
       <r>     0.3786     1.5487    13.4156 </r>
       <r>     0.4478     1.5372    13.5224 </r>
       <r>     0.5170     1.5139    13.6281 </r>
       <r>     0.5862     1.4588    13.7311 </r>
       <r>     0.6554     1.3807    13.8294 </r>
       <r>     0.7245     1.3011    13.9219 </r>
       <r>     0.7937     1.2414    14.0099 </r>
       <r>     0.8629     1.1966    14.0940 </r>
       <r>     0.9321     1.1658    14.1757 </r>
       <r>     1.0013     1.1391    14.2554 </r>
       <r>     1.0704     1.1184    14.3334 </r>
       <r>     1.1396     1.1206    14.4107 </r>
       <r>     1.2088     1.1505    14.4891 </r>
       <r>     1.2780     1.2135    14.5706 </r>
       <r>     1.3472     1.2965    14.6576 </r>
       <r>     1.4163     1.3702    14.7494 </r>
       <r>     1.4855     1.9212    14.8601 </r>
       <r>     1.5547     2.5676    15.0172 </r>
       <r>     1.6239     3.1058    15.2225 </r>
       <r>     1.6931     3.0167    15.4214 </r>
       <r>     1.7622     3.6770    15.6533 </r>
       <r>     1.8314     4.6880    15.9477 </r>
       <r>     1.9006     4.6997    16.2760 </r>
       <r>     1.9698     4.6443    16.5990 </r>
       <r>     2.0390     5.1712    16.9248 </r>
       <r>     2.1081     4.7621    17.2711 </r>
       <r>     2.1773     4.1215    17.5775 </r>
       <r>     2.2465     3.9740    17.8571 </r>
       <r>     2.3157     3.8516    18.1276 </r>
       <r>     2.3848     3.8275    18.3921 </r>
       <r>     2.4540     4.0697    18.6645 </r>
       <r>     2.5232     4.4264    18.9578 </r>
       <r>     2.5924     5.0001    19.2837 </r>
       <r>     2.6616     5.3727    19.6407 </r>
       <r>     2.7307     5.2100    20.0189 </r>
       <r>     2.7999     4.8725    20.3597 </r>
       <r>     2.8691     5.4336    20.7172 </r>
       <r>     2.9383     4.7448    21.0448 </r>
       <r>     3.0075     6.4040    21.4356 </r>
       <r>     3.0766     6.6369    21.9010 </r>
       <r>     3.1458     4.8438    22.2989 </r>
       <r>     3.2150     4.7891    22.6162 </r>
       <r>     3.2842     6.7826    22.9971 </r>
       <r>     3.3534     6.1577    23.4597 </r>
       <r>     3.4225     5.6472    23.8424 </r>
       <r>     3.4917     5.2873    24.2110 </r>
       <r>     3.5609     5.4781    24.5825 </r>
       <r>     3.6301     6.3565    24.9823 </r>
       <r>     3.6993     6.7492    25.4605 </r>
       <r>     3.7684     5.3593    25.8817 </r>
       <r>     3.8376     4.4089    26.2185 </r>
       <r>     3.9068     4.2207    26.5110 </r>
       <r>     3.9760     4.2865    26.8060 </r>
       <r>     4.0452     4.8050    27.1164 </r>
       <r>     4.1143     5.3789    27.4662 </r>
       <r>     4.1835     5.4684    27.8411 </r>
       <r>     4.2527     5.2309    28.2131 </r>
       <r>     4.3219     4.9125    28.5641 </r>
       <r>     4.3910     4.8425    28.8985 </r>
       <r>     4.4602     4.4728    29.2253 </r>
       <r>     4.5294     4.4046    29.5256 </r>
       <r>     4.5986     6.4094    29.9197 </r>
       <r>     4.6678     3.4457    30.2183 </r>
       <r>     4.7369     3.0854    30.4398 </r>
       <r>     4.8061     2.8560    30.6481 </r>
       <r>     4.8753     2.4606    30.8302 </r>
       <r>     4.9445     2.2313    30.9912 </r>
       <r>     5.0137     2.1780    31.1413 </r>
       <r>     5.0828     1.7868    31.2750 </r>
       <r>     5.1520     1.7509    31.4023 </r>
       <r>     5.2212     1.5109    31.5136 </r>
       <r>     5.2904     1.3415    31.6113 </r>
       <r>     5.3596     1.2362    31.7013 </r>
       <r>     5.4287     0.9394    31.7736 </r>
       <r>     5.4979     1.0912    31.8380 </r>
       <r>     5.5671     0.8507    31.9089 </r>
       <r>     5.6363     0.4634    31.9540 </r>
       <r>     5.7055     0.3489    31.9814 </r>
       <r>     5.7746     0.1117    31.9984 </r>
       <r>     5.8438     0.0000    32.0000 </r>
       <r>     5.9130     0.0000    32.0000 </r>
       <r>     5.9822     0.0000    32.0000 </r>
       <r>     6.0514     0.0000    32.0000 </r>
       <r>     6.1205     0.0000    32.0000 </r>
       <r>     6.1897     0.0000    32.0000 </r>
       <r>     6.2589     0.0000    32.0000 </r>
       <r>     6.3281     0.0000    32.0000 </r>
       <r>     6.3972     0.0000    32.0000 </r>
       <r>     6.4664     0.1400    32.0034 </r>
       <r>     6.5356     0.3266    32.0197 </r>
       <r>     6.6048     0.5238    32.0487 </r>
       <r>     6.6740     1.3117    32.1078 </r>
       <r>     6.7431     1.3127    32.1997 </r>
       <r>     6.8123     1.3062    32.2884 </r>
       <r>     6.8815     1.3388    32.3805 </r>
       <r>     6.9507     1.4258    32.4759 </r>
       <r>     7.0199     1.6518    32.5815 </r>
       <r>     7.0890     1.8352    32.7051 </r>
       <r>     7.1582     1.9591    32.8343 </r>
       <r>     7.2274     2.1824    32.9774 </r>
       <r>     7.2966     2.7209    33.1555 </r>
       <r>     7.3658     2.7250    33.3402 </r>
       <r>     7.4349     2.8417    33.5322 </r>
       <r>     7.5041     3.1218    33.7379 </r>
       <r>     7.5733     3.5325    33.9668 </r>
       <r>     7.6425     3.8112    34.2366 </r>
       <r>     7.7117     3.9403    34.4989 </r>
       <r>     7.7808     4.2980    34.7841 </r>
       <r>     7.8500     4.6210    35.0943 </r>
       <r>     7.9192     4.8108    35.4174 </r>
       <r>     7.9884     5.9621    35.7853 </r>
       <r>     8.0576     6.0319    36.2129 </r>
       <r>     8.1267     6.1495    36.6367 </r>
       <r>     8.1959     6.0634    37.0599 </r>
       <r>     8.2651     6.8105    37.4888 </r>
       <r>     8.3343     5.2296    37.8934 </r>
       <r>     8.4035     5.0068    38.2492 </r>
       <r>     8.4726     4.4902    38.5754 </r>
       <r>     8.5418     4.3760    38.8791 </r>
       <r>     8.6110     3.9311    39.1723 </r>
       <r>     8.6802     3.7234    39.4301 </r>
       <r>     8.7493     3.8324    39.6933 </r>
       <r>     8.8185     3.5829    39.9501 </r>
       <r>     8.8877     3.2782    40.1878 </r>
       <r>     8.9569     2.8593    40.4015 </r>
       <r>     9.0261     1.8821    40.5719 </r>
       <r>     9.0952     2.7559    40.7143 </r>
       <r>     9.1644     7.4445    41.0395 </r>
       <r>     9.2336     3.2771    41.3961 </r>
       <r>     9.3028     1.9939    41.5698 </r>
       <r>     9.3720     1.6078    41.6920 </r>
       <r>     9.4411     1.4246    41.7964 </r>
       <r>     9.5103     0.9325    41.8749 </r>
       <r>     9.5795     0.5355    41.9250 </r>
       <r>     9.6487     0.2842    41.9528 </r>
       <r>     9.7179     0.1392    41.9667 </r>
       <r>     9.7870     0.0948    41.9744 </r>
       <r>     9.8562     0.0774    41.9804 </r>
       <r>     9.9254     0.0623    41.9852 </r>
       <r>     9.9946     0.0496    41.9890 </r>
       <r>    10.0638     0.0393    41.9921 </r>
       <r>    10.1329     0.0312    41.9945 </r>
       <r>    10.2021     0.0240    41.9964 </r>
       <r>    10.2713     0.0176    41.9979 </r>
       <r>    10.3405     0.0118    41.9989 </r>
       <r>    10.4097     0.0068    41.9995 </r>
       <r>    10.4788     0.0031    41.9999 </r>
       <r>    10.5480     0.0008    42.0000 </r>
       <r>    10.6172     0.0000    42.0000 </r>
       <r>    10.6864     0.0000    42.0000 </r>
       <r>    10.7555     0.0000    42.0000 </r>
       <r>    10.8247     0.0000    42.0000 </r>
       <r>    10.8939     0.0000    42.0000 </r>
       <r>    10.9631     0.0000    42.0000 </r>
       <r>    11.0323     0.0000    42.0000 </r>
       <r>    11.1014     0.0000    42.0000 </r>
       <r>    11.1706     0.0000    42.0000 </r>
       <r>    11.2398     0.0000    42.0000 </r>
       <r>    11.3090     0.0000    42.0000 </r>
       <r>    11.3782     0.0000    42.0000 </r>
       <r>    11.4473     0.0000    42.0000 </r>
       <r>    11.5165     0.0000    42.0000 </r>
       <r>    11.5857     0.0000    42.0000 </r>
       <r>    11.6549     0.0000    42.0000 </r>
       <r>    11.7241     0.0000    42.0000 </r>
       <r>    11.7932     0.0000    42.0000 </r>
       <r>    11.8624     0.0000    42.0000 </r>
       <r>    11.9316     0.0000    42.0000 </r>
       <r>    12.0008     0.0000    42.0000 </r>
       <r>    12.0700     0.0000    42.0000 </r>
       <r>    12.1391     0.0000    42.0000 </r>
       <r>    12.2083     0.0000    42.0000 </r>
       <r>    12.2775     0.0000    42.0000 </r>
       <r>    12.3467     0.0000    42.0000 </r>
       <r>    12.4159     0.0000    42.0000 </r>
       <r>    12.4850     0.0000    42.0000 </r>
       <r>    12.5542     0.0000    42.0000 </r>
       <r>    12.6234     0.0000    42.0000 </r>
      </set>
     </set>
    </array>
   </total>
  </dos>
 </calculation>
 <structure name="finalpos" >
  <crystal>
   <varray name="basis" >
    <v>       5.43000000       0.00000000       0.00000000 </v>
    <v>       0.00000000       5.43000000       0.00000000 </v>
    <v>       0.00000000       0.00000000       5.43000000 </v>
   </varray>
   <i name="volume">    160.10300700 </i>
   <varray name="rec_basis" >
    <v>       0.18416206       0.00000000       0.00000000 </v>
    <v>       0.00000000       0.18416206       0.00000000 </v>
    <v>       0.00000000       0.00000000       0.18416206 </v>
   </varray>
  </crystal>
  <varray name="positions" >
   <v>       0.00000000       0.00000000       0.00000000 </v>
   <v>       0.00000000       0.50000000       0.50000000 </v>
   <v>       0.50000000       0.00000000       0.50000000 </v>
   <v>       0.50000000       0.50000000       0.00000000 </v>
   <v>       0.25000000       0.25000000       0.25000000 </v>
   <v>       0.25000000       0.75000000       0.75000000 </v>
   <v>       0.75000000       0.25000000       0.75000000 </v>
   <v>       0.75000000       0.75000000       0.25000000 </v>
  </varray>
 </structure>
</modeling>
