unknown system                          
   1.00000000000000     
     2.240427    0.000000   -0.000000
     0.000000    2.240427    0.000000
     0.000000   -0.000000    2.240427
   Au   Cu
     1     3
Direct
  0.000000  0.000000  0.000000
  0.500000  0.500000  0.000000
  0.500000  0.000000  0.500000
  0.000000  0.500000  0.500000
 
   32   32   32
  279.56      268.81      241.25      206.71      172.08      138.34      104.51      72.417      46.428      29.317    
  19.685      13.984      10.749      9.1055      8.3079      7.8914      7.7448      7.8914      8.3079      9.1055    
  10.749      13.984      19.685      29.317      46.428      72.417      104.51      138.34      172.08      206.71    
  241.25      268.81      268.81      258.84      233.19      200.68      167.51      134.64      101.50      70.222    
  45.091      28.653      19.368      13.803      10.586      8.8634      7.9388      7.4117      7.2221      7.4117    
  7.9388      8.8634      10.586      13.803      19.368      28.653      45.091      70.222      101.50      134.64    
  167.51      200.68      233.19      258.84      241.25      233.19      212.12      184.46      154.78      124.14    
  92.988      64.076      41.403      26.846      18.517      13.398      10.364      8.6259      7.5891      6.9539    
  6.7222      6.9539      7.5891      8.6259      10.364      13.398      18.517      26.846      41.403      64.076    
  92.988      124.14      154.78      184.46      212.12      233.19      206.71      200.68      184.46      161.95    
  136.12      108.37      80.331      55.181      36.229      24.363      17.365      13.008      10.445      8.9964    
  8.1609      7.6683      7.4921      7.6683      8.1609      8.9964      10.445      13.008      17.365      24.363    
  36.229      55.181      80.331      108.37      136.12      161.95      184.46      200.68      172.08      167.51    
  154.78      136.12      113.66      89.305      65.472      45.192      30.670      21.729      16.164      12.725    
  10.741      9.6709      9.1114      8.8156      8.7153      8.8156      9.1114      9.6709      10.741      12.725    
  16.164      21.729      30.670      45.192      65.472      89.305      113.66      136.12      154.78      167.51    
  138.34      134.64      124.14      108.37      89.305      69.205      50.603      35.773      25.667      19.279    
  15.119      12.553      11.025      10.136      9.6162      9.3203      9.2186      9.3203      9.6162      10.136    
  11.025      12.553      15.119      19.279      25.667      35.773      50.603      69.205      89.305      108.37    
  124.14      134.64      104.51      101.50      92.988      80.331      65.472      50.603      37.739      28.116    
  21.642      17.240      14.392      12.631      11.549      10.879      10.461      10.217      10.133      10.217    
  10.461      10.879      11.549      12.631      14.392      17.240      21.642      28.116      37.739      50.603    
  65.472      80.331      92.988      101.50      72.417      70.222      64.076      55.181      45.192      35.773    
  28.116      22.532      18.507      15.781      14.127      13.263      12.973      13.087      13.414      13.736    
  13.867      13.736      13.414      13.087      12.973      13.263      14.127      15.781      18.507      22.532    
  28.116      35.773      45.192      55.181      64.076      70.222      46.428      45.091      41.403      36.229    
  30.670      25.667      21.642      18.507      16.296      14.992      14.531      14.892      16.047      17.828    
  19.818      21.399      22.004      21.399      19.818      17.828      16.047      14.892      14.531      14.992    
  16.296      18.507      21.642      25.667      30.670      36.229      41.403      45.091      29.317      28.653    
  26.846      24.363      21.729      19.279      17.240      15.781      14.992      14.993      16.010      18.321    
  22.034      26.810      31.726      35.475      36.882      35.475      31.726      26.810      22.034      18.321    
  16.010      14.993      14.992      15.781      17.240      19.279      21.729      24.363      26.846      28.653    
  19.685      19.368      18.517      17.365      16.164      15.119      14.392      14.127      14.531      16.010    
  19.230      24.881      33.125      43.139      55.614      68.900      74.853      68.900      55.614      43.139    
  33.125      24.881      19.230      16.010      14.531      14.127      14.392      15.119      16.164      17.365    
  18.517      19.368      13.984      13.803      13.398      13.008      12.725      12.553      12.631      13.263    
  14.892      18.321      24.881      35.823      52.671      88.955      147.25      204.21      228.07      204.21    
  147.25      88.955      52.671      35.823      24.881      18.321      14.892      13.263      12.631      12.553    
  12.725      13.008      13.398      13.803      10.749      10.586      10.364      10.445      10.741      11.025    
  11.549      12.973      16.047      22.034      33.125      52.671      107.64      224.58      383.69      524.40    
  580.78      524.40      383.69      224.58      107.64      52.671      33.125      22.034      16.047      12.973    
  11.549      11.025      10.741      10.445      10.364      10.586      9.1055      8.8634      8.6259      8.9964    
  9.6709      10.136      10.879      13.087      17.828      26.810      43.139      88.955      224.58      468.62    
  767.42      1016.3      1113.3      1016.3      767.42      468.62      224.58      88.955      43.139      26.810    
  17.828      13.087      10.879      10.136      9.6709      8.9964      8.6259      8.8634      8.3079      7.9388    
  7.5891      8.1609      9.1114      9.6162      10.461      13.414      19.818      31.726      55.614      147.25    
  383.69      767.42      1208.1      1561.0      1696.0      1561.0      1208.1      767.42      383.69      147.25    
  55.614      31.726      19.818      13.414      10.461      9.6162      9.1114      8.1609      7.5891      7.9388    
  7.8914      7.4117      6.9539      7.6683      8.8156      9.3203      10.217      13.736      21.399      35.475    
  68.900      204.21      524.40      1016.3      1561.0      1987.1      2148.1      1987.1      1561.0      1016.3    
  524.40      204.21      68.900      35.475      21.399      13.736      10.217      9.3203      8.8156      7.6683    
  6.9539      7.4117      7.7448      7.2221      6.7222      7.4921      8.7153      9.2186      10.133      13.867    
  22.004      36.882      74.853      228.07      580.78      1113.3      1696.0      2148.1      2318.2      2148.1    
  1696.0      1113.3      580.78      228.07      74.853      36.882      22.004      13.867      10.133      9.2186    
  8.7153      7.4921      6.7222      7.2221      7.8914      7.4117      6.9539      7.6683      8.8156      9.3203    
  10.217      13.736      21.399      35.475      68.900      204.21      524.40      1016.3      1561.0      1987.1    
  2148.1      1987.1      1561.0      1016.3      524.40      204.21      68.900      35.475      21.399      13.736    
  10.217      9.3203      8.8156      7.6683      6.9539      7.4117      8.3079      7.9388      7.5891      8.1609    
  9.1114      9.6162      10.461      13.414      19.818      31.726      55.614      147.25      383.69      767.42    
  1208.1      1561.0      1696.0      1561.0      1208.1      767.42      383.69      147.25      55.614      31.726    
  19.818      13.414      10.461      9.6162      9.1114      8.1609      7.5891      7.9388      9.1055      8.8634    
  8.6259      8.9964      9.6709      10.136      10.879      13.087      17.828      26.810      43.139      88.955    
  224.58      468.62      767.42      1016.3      1113.3      1016.3      767.42      468.62      224.58      88.955    
  43.139      26.810      17.828      13.087      10.879      10.136      9.6709      8.9964      8.6259      8.8634    
  10.749      10.586      10.364      10.445      10.741      11.025      11.549      12.973      16.047      22.034    
  33.125      52.671      107.64      224.58      383.69      524.40      580.78      524.40      383.69      224.58    
  107.64      52.671      33.125      22.034      16.047      12.973      11.549      11.025      10.741      10.445    
  10.364      10.586      13.984      13.803      13.398      13.008      12.725      12.553      12.631      13.263    
  14.892      18.321      24.881      35.823      52.671      88.955      147.25      204.21      228.07      204.21    
  147.25      88.955      52.671      35.823      24.881      18.321      14.892      13.263      12.631      12.553    
  12.725      13.008      13.398      13.803      19.685      19.368      18.517      17.365      16.164      15.119    
  14.392      14.127      14.531      16.010      19.230      24.881      33.125      43.139      55.614      68.900    
  74.853      68.900      55.614      43.139      33.125      24.881      19.230      16.010      14.531      14.127    
  14.392      15.119      16.164      17.365      18.517      19.368      29.317      28.653      26.846      24.363    
  21.729      19.279      17.240      15.781      14.992      14.993      16.010      18.321      22.034      26.810    
  31.726      35.475      36.882      35.475      31.726      26.810      22.034      18.321      16.010      14.993    
  14.992      15.781      17.240      19.279      21.729      24.363      26.846      28.653      46.428      45.091    
  41.403      36.229      30.670      25.667      21.642      18.507      16.296      14.992      14.531      14.892    
  16.047      17.828      19.818      21.399      22.004      21.399      19.818      17.828      16.047      14.892    
  14.531      14.992      16.296      18.507      21.642      25.667      30.670      36.229      41.403      45.091    
  72.417      70.222      64.076      55.181      45.192      35.773      28.116      22.532      18.507      15.781    
  14.127      13.263      12.973      13.087      13.414      13.736      13.867      13.736      13.414      13.087    
  12.973      13.263      14.127      15.781      18.507      22.532      28.116      35.773      45.192      55.181    
  64.076      70.222      104.51      101.50      92.988      80.331      65.472      50.603      37.739      28.116    
  21.642      17.240      14.392      12.631      11.549      10.879      10.461      10.217      10.133      10.217    
  10.461      10.879      11.549      12.631      14.392      17.240      21.642      28.116      37.739      50.603    
  65.472      80.331      92.988      101.50      138.34      134.64      124.14      108.37      89.305      69.205    
  50.603      35.773      25.667      19.279      15.119      12.553      11.025      10.136      9.6162      9.3203    
  9.2186      9.3203      9.6162      10.136      11.025      12.553      15.119      19.279      25.667      35.773    
  50.603      69.205      89.305      108.37      124.14      134.64      172.08      167.51      154.78      136.12    
  113.66      89.305      65.472      45.192      30.670      21.729      16.164      12.725      10.741      9.6709    
  9.1114      8.8156      8.7153      8.8156      9.1114      9.6709      10.741      12.725      16.164      21.729    
  30.670      45.192      65.472      89.305      113.66      136.12      154.78      167.51      206.71      200.68    
  184.46      161.95      136.12      108.37      80.331      55.181      36.229      24.363      17.365      13.008    
  10.445      8.9964      8.1609      7.6683      7.4921      7.6683      8.1609      8.9964      10.445      13.008    
  17.365      24.363      36.229      55.181      80.331      108.37      136.12      161.95      184.46      200.68    
  241.25      233.19      212.12      184.46      154.78      124.14      92.988      64.076      41.403      26.846    
  18.517      13.398      10.364      8.6259      7.5891      6.9539      6.7222      6.9539      7.5891      8.6259    
  10.364      13.398      18.517      26.846      41.403      64.076      92.988      124.14      154.78      184.46    
  212.12      233.19      268.81      258.84      233.19      200.68      167.51      134.64      101.50      70.222    
  45.091      28.653      19.368      13.803      10.586      8.8634      7.9388      7.4117      7.2221      7.4117    
  7.9388      8.8634      10.586      13.803      19.368      28.653      45.091      70.222      101.50      134.64    
  167.51      200.68      233.19      258.84      268.81      258.84      233.19      200.68      167.51      134.64    
  101.50      70.222      45.091      28.653      19.368      13.803      10.586      8.8634      7.9388      7.4117    
  7.2221      7.4117      7.9388      8.8634      10.586      13.803      19.368      28.653      45.091      70.222    
  101.50      134.64      167.51      200.68      233.19      258.84      258.84      249.58      225.65      194.96    
  163.09      131.03      98.576      68.097      43.805      28.017      19.062      13.633      10.444      8.6604    
  7.6304      7.0102      6.7842      7.0102      7.6304      8.6604      10.444      13.633      19.062      28.017    
  43.805      68.097      98.576      131.03      163.09      194.96      225.65      249.58      233.19      225.65    
  205.81      179.47      150.76      120.78      90.282      62.149      40.260      26.282      18.236      13.250    
  10.259      8.4909      7.3875      6.6913      6.4356      6.6913      7.3875      8.4909      10.259      13.250    
  18.236      26.282      40.260      62.149      90.282      120.78      150.76      179.47      205.81      225.65    
  200.68      194.96      179.47      157.75      132.56      105.36      77.961      53.551      35.289      23.894    
  17.114      12.875      10.354      8.8919      8.0126      7.4787      7.2862      7.4787      8.0126      8.8919    
  10.354      12.875      17.114      23.894      35.289      53.551      77.961      105.36      132.56      157.75    
  179.47      194.96      167.51      163.09      150.76      132.56      110.57      86.736      63.526      43.913    
  29.952      21.348      15.945      12.599      10.652      9.5757      8.9881      8.6650      8.5539      8.6650    
  8.9881      9.5757      10.652      12.599      15.945      21.348      29.952      43.913      63.526      86.736    
  110.57      132.56      150.76      163.09      134.64      131.03      120.78      105.36      86.736      67.156    
  49.133      34.850      25.145      18.967      14.931      12.439      10.946      10.068      9.5456      9.2443    
  9.1404      9.2443      9.5456      10.068      10.946      12.439      14.931      18.967      25.145      34.850    
  49.133      67.156      86.736      105.36      120.78      131.03      101.50      98.576      90.282      77.961    
  63.526      49.133      36.738      27.496      21.256      16.989      14.229      12.521      11.468      10.814    
  10.405      10.166      10.084      10.166      10.405      10.814      11.468      12.521      14.229      16.989    
  21.256      27.496      36.738      49.133      63.526      77.961      90.282      98.576      70.222      68.097    
  62.149      53.551      43.913      34.850      27.496      22.118      18.216      15.577      13.972      13.124    
  12.827      12.918      13.216      13.512      13.634      13.512      13.216      12.918      12.827      13.124    
  13.972      15.577      18.216      22.118      27.496      34.850      43.913      53.551      62.149      68.097    
  45.091      43.805      40.260      35.289      29.952      25.145      21.256      18.216      16.077      14.810    
  14.349      14.666      15.738      17.405      19.273      20.760      21.329      20.760      19.273      17.405    
  15.738      14.666      14.349      14.810      16.077      18.216      21.256      25.145      29.952      35.289    
  40.260      43.805      28.653      28.017      26.282      23.894      21.348      18.967      16.989      15.577    
  14.810      14.795      15.741      17.911      21.410      25.920      30.569      34.118      35.450      34.118    
  30.569      25.920      21.410      17.911      15.741      14.795      14.810      15.577      16.989      18.967    
  21.348      23.894      26.282      28.017      19.368      19.062      18.236      17.114      15.945      14.931    
  14.229      13.972      14.349      15.741      18.779      24.118      31.925      41.394      52.374      63.827    
  68.966      63.827      52.374      41.394      31.925      24.118      18.779      15.741      14.349      13.972    
  14.229      14.931      15.945      17.114      18.236      19.062      13.803      13.633      13.250      12.875    
  12.599      12.439      12.521      13.124      14.666      17.911      24.118      34.487      49.872      81.305    
  132.57      183.26      204.61      183.26      132.57      81.305      49.872      34.487      24.118      17.911    
  14.666      13.124      12.521      12.439      12.599      12.875      13.250      13.633      10.586      10.444    
  10.259      10.354      10.652      10.946      11.468      12.827      15.738      21.410      31.925      49.872    
  97.683      201.72      345.55      473.86      525.47      473.86      345.55      201.72      97.683      49.872    
  31.925      21.410      15.738      12.827      11.468      10.946      10.652      10.354      10.259      10.444    
  8.8634      8.6604      8.4909      8.8919      9.5757      10.068      10.814      12.918      17.405      25.920    
  41.394      81.305      201.72      423.13      697.64      927.84      1017.9      927.84      697.64      423.13    
  201.72      81.305      41.394      25.920      17.405      12.918      10.814      10.068      9.5757      8.8919    
  8.4909      8.6604      7.9388      7.6304      7.3875      8.0126      8.9881      9.5456      10.405      13.216    
  19.273      30.569      52.374      132.57      345.55      697.64      1106.4      1435.9      1562.3      1435.9    
  1106.4      697.64      345.55      132.57      52.374      30.569      19.273      13.216      10.405      9.5456    
  8.9881      8.0126      7.3875      7.6304      7.4117      7.0102      6.6913      7.4787      8.6650      9.2443    
  10.166      13.512      20.760      34.118      63.827      183.26      473.86      927.84      1435.9      1835.9    
  1987.5      1835.9      1435.9      927.84      473.86      183.26      63.827      34.118      20.760      13.512    
  10.166      9.2443      8.6650      7.4787      6.6913      7.0102      7.2221      6.7842      6.4356      7.2862    
  8.5539      9.1404      10.084      13.634      21.329      35.450      68.966      204.61      525.47      1017.9    
  1562.3      1987.5      2148.0      1987.5      1562.3      1017.9      525.47      204.61      68.966      35.450    
  21.329      13.634      10.084      9.1404      8.5539      7.2862      6.4356      6.7842      7.4117      7.0102    
  6.6913      7.4787      8.6650      9.2443      10.166      13.512      20.760      34.118      63.827      183.26    
  473.86      927.84      1435.9      1835.9      1987.5      1835.9      1435.9      927.84      473.86      183.26    
  63.827      34.118      20.760      13.512      10.166      9.2443      8.6650      7.4787      6.6913      7.0102    
  7.9388      7.6304      7.3875      8.0126      8.9881      9.5456      10.405      13.216      19.273      30.569    
  52.374      132.57      345.55      697.64      1106.4      1435.9      1562.3      1435.9      1106.4      697.64    
  345.55      132.57      52.374      30.569      19.273      13.216      10.405      9.5456      8.9881      8.0126    
  7.3875      7.6304      8.8634      8.6604      8.4909      8.8919      9.5757      10.068      10.814      12.918    
  17.405      25.920      41.394      81.305      201.72      423.13      697.64      927.84      1017.9      927.84    
  697.64      423.13      201.72      81.305      41.394      25.920      17.405      12.918      10.814      10.068    
  9.5757      8.8919      8.4909      8.6604      10.586      10.444      10.259      10.354      10.652      10.946    
  11.468      12.827      15.738      21.410      31.925      49.872      97.683      201.72      345.55      473.86    
  525.47      473.86      345.55      201.72      97.683      49.872      31.925      21.410      15.738      12.827    
  11.468      10.946      10.652      10.354      10.259      10.444      13.803      13.633      13.250      12.875    
  12.599      12.439      12.521      13.124      14.666      17.911      24.118      34.487      49.872      81.305    
  132.57      183.26      204.61      183.26      132.57      81.305      49.872      34.487      24.118      17.911    
  14.666      13.124      12.521      12.439      12.599      12.875      13.250      13.633      19.368      19.062    
  18.236      17.114      15.945      14.931      14.229      13.972      14.349      15.741      18.779      24.118    
  31.925      41.394      52.374      63.827      68.966      63.827      52.374      41.394      31.925      24.118    
  18.779      15.741      14.349      13.972      14.229      14.931      15.945      17.114      18.236      19.062    
  28.653      28.017      26.282      23.894      21.348      18.967      16.989      15.577      14.810      14.795    
  15.741      17.911      21.410      25.920      30.569      34.118      35.450      34.118      30.569      25.920    
  21.410      17.911      15.741      14.795      14.810      15.577      16.989      18.967      21.348      23.894    
  26.282      28.017      45.091      43.805      40.260      35.289      29.952      25.145      21.256      18.216    
  16.077      14.810      14.349      14.666      15.738      17.405      19.273      20.760      21.329      20.760    
  19.273      17.405      15.738      14.666      14.349      14.810      16.077      18.216      21.256      25.145    
  29.952      35.289      40.260      43.805      70.222      68.097      62.149      53.551      43.913      34.850    
  27.496      22.118      18.216      15.577      13.972      13.124      12.827      12.918      13.216      13.512    
  13.634      13.512      13.216      12.918      12.827      13.124      13.972      15.577      18.216      22.118    
  27.496      34.850      43.913      53.551      62.149      68.097      101.50      98.576      90.282      77.961    
  63.526      49.133      36.738      27.496      21.256      16.989      14.229      12.521      11.468      10.814    
  10.405      10.166      10.084      10.166      10.405      10.814      11.468      12.521      14.229      16.989    
  21.256      27.496      36.738      49.133      63.526      77.961      90.282      98.576      134.64      131.03    
  120.78      105.36      86.736      67.156      49.133      34.850      25.145      18.967      14.931      12.439    
  10.946      10.068      9.5456      9.2443      9.1404      9.2443      9.5456      10.068      10.946      12.439    
  14.931      18.967      25.145      34.850      49.133      67.156      86.736      105.36      120.78      131.03    
  167.51      163.09      150.76      132.56      110.57      86.736      63.526      43.913      29.952      21.348    
  15.945      12.599      10.652      9.5757      8.9881      8.6650      8.5539      8.6650      8.9881      9.5757    
  10.652      12.599      15.945      21.348      29.952      43.913      63.526      86.736      110.57      132.56    
  150.76      163.09      200.68      194.96      179.47      157.75      132.56      105.36      77.961      53.551    
  35.289      23.894      17.114      12.875      10.354      8.8919      8.0126      7.4787      7.2862      7.4787    
  8.0126      8.8919      10.354      12.875      17.114      23.894      35.289      53.551      77.961      105.36    
  132.56      157.75      179.47      194.96      233.19      225.65      205.81      179.47      150.76      120.78    
  90.282      62.149      40.260      26.282      18.236      13.250      10.259      8.4909      7.3875      6.6913    
  6.4356      6.6913      7.3875      8.4909      10.259      13.250      18.236      26.282      40.260      62.149    
  90.282      120.78      150.76      179.47      205.81      225.65      258.84      249.58      225.65      194.96    
  163.09      131.03      98.576      68.097      43.805      28.017      19.062      13.633      10.444      8.6604    
  7.6304      7.0102      6.7842      7.0102      7.6304      8.6604      10.444      13.633      19.062      28.017    
  43.805      68.097      98.576      131.03      163.09      194.96      225.65      249.58      241.25      233.19    
  212.12      184.46      154.78      124.14      92.988      64.076      41.403      26.846      18.517      13.398    
  10.364      8.6259      7.5891      6.9539      6.7222      6.9539      7.5891      8.6259      10.364      13.398    
  18.517      26.846      41.403      64.076      92.988      124.14      154.78      184.46      212.12      233.19    
  233.19      225.65      205.81      179.47      150.76      120.78      90.282      62.149      40.260      26.282    
  18.236      13.250      10.259      8.4909      7.3875      6.6913      6.4356      6.6913      7.3875      8.4909    
  10.259      13.250      18.236      26.282      40.260      62.149      90.282      120.78      150.76      179.47    
  205.81      225.65      212.12      205.81      188.94      165.75      139.41      111.21      82.620      56.765    
  37.112      24.741      17.473      12.906      10.123      8.4134      7.2943      6.5702      6.3035      6.5702    
  7.2943      8.4134      10.123      12.906      17.473      24.741      37.112      56.765      82.620      111.21    
  139.41      165.75      188.94      205.81      184.46      179.47      165.75      145.97      122.43      96.806    
  71.272      49.009      32.704      22.602      16.430      12.548      10.204      8.7942      7.9058      7.3517    
  7.1511      7.3517      7.9058      8.7942      10.204      12.548      16.430      22.602      32.704      49.009    
  71.272      96.806      122.43      145.97      165.75      179.47      154.78      150.76      139.41      122.43    
  101.76      79.446      58.068      40.368      27.975      20.283      15.343      12.276      10.460      9.4177    
  8.8150      8.4698      8.3500      8.4698      8.8150      9.4177      10.460      12.276      15.343      20.283    
  27.975      40.368      58.068      79.446      101.76      122.43      139.41      150.76      124.14      120.78    
  111.21      96.806      79.446      61.393      45.044      32.303      23.698      18.090      14.410      12.130    
  10.751      9.9238      9.4220      9.1296      9.0288      9.1296      9.4220      9.9238      10.751      12.130    
  14.410      18.090      23.698      32.303      45.044      61.393      79.446      96.806      111.21      120.78    
  92.988      90.282      82.620      71.272      58.068      45.044      33.973      25.785      20.169      16.283    
  13.773      12.214      11.249      10.649      10.274      10.057      9.9838      10.057      10.274      10.649    
  11.249      12.214      13.773      16.283      20.169      25.785      33.973      45.044      58.068      71.272    
  82.620      90.282      64.076      62.149      56.765      49.009      40.368      32.303      25.785      20.951    
  17.398      15.002      13.535      12.739      12.430      12.465      12.690      12.926      13.025      12.926    
  12.690      12.465      12.430      12.739      13.535      15.002      17.398      20.951      25.785      32.303    
  40.368      49.009      56.765      62.149      41.403      40.260      37.112      32.704      27.975      23.698    
  20.169      17.398      15.458      14.299      13.840      14.050      14.903      16.270      17.817      19.055    
  19.530      19.055      17.817      16.270      14.903      14.050      13.840      14.299      15.458      17.398    
  20.169      23.698      27.975      32.704      37.112      40.260      26.846      26.282      24.741      22.602    
  20.283      18.090      16.283      15.002      14.299      14.243      15.003      16.798      19.725      23.521    
  27.452      30.459      31.590      30.459      27.452      23.521      19.725      16.798      15.003      14.243    
  14.299      15.002      16.283      18.090      20.283      22.602      24.741      26.282      18.517      18.236    
  17.473      16.430      15.343      14.410      13.773      13.535      13.840      15.003      17.554      22.056    
  28.679      36.772      44.978      52.439      55.733      52.439      44.978      36.772      28.679      22.056    
  17.554      15.003      13.840      13.535      13.773      14.410      15.343      16.430      17.473      18.236    
  13.398      13.250      12.906      12.548      12.276      12.130      12.214      12.739      14.050      16.798    
  22.056      30.872      43.348      63.884      98.074      133.16      148.20      133.16      98.074      63.884    
  43.348      30.872      22.056      16.798      14.050      12.739      12.214      12.130      12.276      12.548    
  12.906      13.250      10.364      10.259      10.123      10.204      10.460      10.751      11.249      12.430    
  14.903      19.725      28.679      43.348      74.720      146.59      251.24      347.28      386.38      347.28    