unknown system                          
   1.00000000000000     
     3.625845    0.000000   -0.000000
     0.000000    3.625845    0.000000
     0.000000   -0.000000    3.625845
   Au   Cu
     1     3
Direct
 -0.000000 -0.000000 -0.000000
  0.500000  0.500000 -0.000000
  0.500000  0.000000  0.500000
 -0.000000  0.500000  0.500000
 
   32   32   32
 0.22663300545E+03 0.21894718493E+03 0.19893311918E+03 0.17321006880E+03 0.14702651160E+03
 0.12172287154E+03 0.96446912789E+02 0.71432944092E+02 0.49118875068E+02 0.32333401786E+02
 0.21883834691E+02 0.15968084901E+02 0.12433530601E+02 0.10425184851E+02 0.93437074362E+01
 0.88240642087E+01 0.86719905150E+01 0.88240642087E+01 0.93437074362E+01 0.10425184851E+02
 0.12433530601E+02 0.15968084901E+02 0.21883834691E+02 0.32333401786E+02 0.49118875068E+02
 0.71432944092E+02 0.96446912789E+02 0.12172287154E+03 0.14702651160E+03 0.17321006880E+03
 0.19893311918E+03 0.21894718493E+03 0.21894718493E+03 0.21175219213E+03 0.19295948740E+03
 0.16862752926E+03 0.14353798238E+03 0.11892473802E+03 0.94129588595E+02 0.69615716257E+02
 0.47879711794E+02 0.31640641362E+02 0.21566744445E+02 0.15810750183E+02 0.12327110934E+02
 0.10301914652E+02 0.91649899645E+01 0.85884849303E+01 0.84125907909E+01 0.85884849303E+01
 0.91649899645E+01 0.10301914652E+02 0.12327110934E+02 0.15810750183E+02 0.21566744445E+02
 0.31640641362E+02 0.47879711794E+02 0.69615716257E+02 0.94129588595E+02 0.11892473802E+03
 0.14353798238E+03 0.16862752926E+03 0.19295948740E+03 0.21175219213E+03 0.19893311918E+03
 0.19295948740E+03 0.17719470122E+03 0.15628914082E+03 0.13388451912E+03 0.11100589794E+03
 0.87524859317E+02 0.64466653564E+02 0.44411439987E+02 0.29732077310E+02 0.20714632679E+02
 0.15431556661E+02 0.12168549985E+02 0.10212338865E+02 0.90550092731E+01 0.84304979575E+01
 0.82312878626E+01 0.84304979575E+01 0.90550092731E+01 0.10212338865E+02 0.12168549985E+02
 0.15431556661E+02 0.20714632679E+02 0.29732077310E+02 0.44411439987E+02 0.64466653564E+02
 0.87524859317E+02 0.11100589794E+03 0.13388451912E+03 0.15628914082E+03 0.17719470122E+03
 0.19295948740E+03 0.17321006880E+03 0.16862752926E+03 0.15628914082E+03 0.13922543979E+03
 0.11985079292E+03 0.99099130846E+02 0.77549261288E+02 0.56818249403E+02 0.39394504953E+02
 0.27055453022E+02 0.19559397316E+02 0.15001316054E+02 0.12185397922E+02 0.10508658509E+02
 0.95262260792E+01 0.89996823135E+01 0.88319321230E+01 0.89996823135E+01 0.95262260792E+01
 0.10508658509E+02 0.12185397922E+02 0.15001316054E+02 0.19559397316E+02 0.27055453022E+02
 0.39394504953E+02 0.56818249403E+02 0.77549261288E+02 0.99099130846E+02 0.11985079292E+03
 0.13922543979E+03 0.15628914082E+03 0.16862752926E+03 0.14702651160E+03 0.14353798238E+03
 0.13388451912E+03 0.11985079292E+03 0.10302956031E+03 0.84488940039E+02 0.65453105469E+02
 0.47848820080E+02 0.33756525158E+02 0.24174997735E+02 0.18331001970E+02 0.14624685692E+02
 0.12367253864E+02 0.11052739873E+02 0.10309740933E+02 0.99254139838E+01 0.98052918624E+01
 0.99254139838E+01 0.10309740933E+02 0.11052739873E+02 0.12367253864E+02 0.14624685692E+02
 0.18331001970E+02 0.24174997735E+02 0.33756525158E+02 0.47848820080E+02 0.65453105469E+02
 0.84488940039E+02 0.10302956031E+03 0.11985079292E+03 0.13388451912E+03 0.14353798238E+03
 0.12172287154E+03 0.11892473802E+03 0.11100589794E+03 0.99099130846E+02 0.84488940039E+02
 0.68489687045E+02 0.52677221643E+02 0.38855158416E+02 0.28417824934E+02 0.21569569665E+02
 0.17210645539E+02 0.14388755570E+02 0.12668609661E+02 0.11650234741E+02 0.11057470685E+02
 0.10739392531E+02 0.10637282388E+02 0.10739392531E+02 0.11057470685E+02 0.11650234741E+02
 0.12668609661E+02 0.14388755570E+02 0.17210645539E+02 0.21569569665E+02 0.28417824934E+02
 0.38855158416E+02 0.52677221643E+02 0.68489687045E+02 0.84488940039E+02 0.99099130846E+02
 0.11100589794E+03 0.11892473802E+03 0.96446912789E+02 0.94129588595E+02 0.87524859317E+02
 0.77549261288E+02 0.65453105469E+02 0.52677221643E+02 0.40748958700E+02 0.30990623520E+02
 0.24031166399E+02 0.19468603720E+02 0.16415918184E+02 0.14505204484E+02 0.13390515856E+02
 0.12775040469E+02 0.12451574493E+02 0.12295322951E+02 0.12248206112E+02 0.12295322951E+02
 0.12451574493E+02 0.12775040469E+02 0.13390515856E+02 0.14505204484E+02 0.16415918184E+02
 0.19468603720E+02 0.24031166399E+02 0.30990623520E+02 0.40748958700E+02 0.52677221643E+02
 0.65453105469E+02 0.77549261288E+02 0.87524859317E+02 0.94129588595E+02 0.71432944092E+02
 0.69615716257E+02 0.64466653564E+02 0.56818249403E+02 0.47848820080E+02 0.38855158416E+02
 0.30990623520E+02 0.24964125405E+02 0.20792712537E+02 0.17942720848E+02 0.16185862454E+02
 0.15333432188E+02 0.15155533839E+02 0.15422225696E+02 0.15887853684E+02 0.16301043900E+02
 0.16463995441E+02 0.16301043900E+02 0.15887853684E+02 0.15422225696E+02 0.15155533839E+02
 0.15333432188E+02 0.16185862454E+02 0.17942720848E+02 0.20792712537E+02 0.24964125405E+02
 0.30990623520E+02 0.38855158416E+02 0.47848820080E+02 0.56818249403E+02 0.64466653564E+02
 0.69615716257E+02 0.49118875068E+02 0.47879711794E+02 0.44411439987E+02 0.39394504953E+02
 0.33756525158E+02 0.28417824934E+02 0.24031166399E+02 0.20792712537E+02 0.18508886557E+02
 0.17174088585E+02 0.16805640062E+02 0.17359128825E+02 0.18722942988E+02 0.20644263443E+02
 0.22674132338E+02 0.24234680333E+02 0.24821980285E+02 0.24234680333E+02 0.22674132338E+02
 0.20644263443E+02 0.18722942988E+02 0.17359128825E+02 0.16805640062E+02 0.17174088585E+02
 0.18508886557E+02 0.20792712537E+02 0.24031166399E+02 0.28417824934E+02 0.33756525158E+02
 0.39394504953E+02 0.44411439987E+02 0.47879711794E+02 0.32333401786E+02 0.31640641362E+02
 0.29732077310E+02 0.27055453022E+02 0.24174997735E+02 0.21569569665E+02 0.19468603720E+02
 0.17942720848E+02 0.17174088585E+02 0.17351227784E+02 0.18673280073E+02 0.21294368950E+02
 0.25162315671E+02 0.29835625682E+02 0.34435423573E+02 0.38039973839E+02 0.39526879196E+02
 0.38039973839E+02 0.34435423573E+02 0.29835625682E+02 0.25162315671E+02 0.21294368950E+02
 0.18673280073E+02 0.17351227784E+02 0.17174088585E+02 0.17942720848E+02 0.19468603720E+02
 0.21569569665E+02 0.24174997735E+02 0.27055453022E+02 0.29732077310E+02 0.31640641362E+02
 0.21883834691E+02 0.21566744445E+02 0.20714632679E+02 0.19559397316E+02 0.18331001970E+02
 0.17210645539E+02 0.16415918184E+02 0.16185862454E+02 0.16805640062E+02 0.18673280073E+02
 0.22296451832E+02 0.28067452836E+02 0.35871587940E+02 0.47664555771E+02 0.66195619071E+02
 0.84792413631E+02 0.92700397914E+02 0.84792413631E+02 0.66195619071E+02 0.47664555771E+02
 0.35871587940E+02 0.28067452836E+02 0.22296451832E+02 0.18673280073E+02 0.16805640062E+02
 0.16185862454E+02 0.16415918184E+02 0.17210645539E+02 0.18331001970E+02 0.19559397316E+02
 0.20714632679E+02 0.21566744445E+02 0.15968084901E+02 0.15810750183E+02 0.15431556661E+02
 0.15001316054E+02 0.14624685692E+02 0.14388755570E+02 0.14505204484E+02 0.15333432188E+02
 0.17359128825E+02 0.21294368950E+02 0.28067452836E+02 0.38473577698E+02 0.61354039557E+02
 0.10956601597E+03 0.17607557846E+03 0.23546001732E+03 0.25936423988E+03 0.23546001732E+03
 0.17607557846E+03 0.10956601597E+03 0.61354039557E+02 0.38473577698E+02 0.28067452836E+02
 0.21294368950E+02 0.17359128825E+02 0.15333432188E+02 0.14505204484E+02 0.14388755570E+02
 0.14624685692E+02 0.15001316054E+02 0.15431556661E+02 0.15810750183E+02 0.12433530601E+02
 0.12327110934E+02 0.12168549985E+02 0.12185397922E+02 0.12367253864E+02 0.12668609661E+02
 0.13390515856E+02 0.15155533839E+02 0.18722942988E+02 0.25162315671E+02 0.35871587940E+02
 0.61354039557E+02 0.13133932284E+03 0.25443842973E+03 0.40400777474E+03 0.52831820057E+03
 0.57676107001E+03 0.52831820057E+03 0.40400777474E+03 0.25443842973E+03 0.13133932284E+03
 0.61354039557E+02 0.35871587940E+02 0.25162315671E+02 0.18722942988E+02 0.15155533839E+02
 0.13390515856E+02 0.12668609661E+02 0.12367253864E+02 0.12185397922E+02 0.12168549985E+02
 0.12327110934E+02 0.10425184851E+02 0.10301914652E+02 0.10212338865E+02 0.10508658509E+02
 0.11052739873E+02 0.11650234741E+02 0.12775040469E+02 0.15422225696E+02 0.20644263443E+02
 0.29835625682E+02 0.47664555771E+02 0.10956601597E+03 0.25443842973E+03 0.47880509800E+03
 0.73086403430E+03 0.93079559576E+03 0.10069970717E+04 0.93079559576E+03 0.73086403430E+03
 0.47880509800E+03 0.25443842973E+03 0.10956601597E+03 0.47664555771E+02 0.29835625682E+02
 0.20644263443E+02 0.15422225696E+02 0.12775040469E+02 0.11650234741E+02 0.11052739873E+02
 0.10508658509E+02 0.10212338865E+02 0.10301914652E+02 0.93437074362E+01 0.91649899645E+01
 0.90550092731E+01 0.95262260792E+01 0.10309740933E+02 0.11057470685E+02 0.12451574493E+02
 0.15887853684E+02 0.22674132338E+02 0.34435423573E+02 0.66195619071E+02 0.17607557846E+03
 0.40400777474E+03 0.73086403430E+03 0.10798212533E+04 0.13476644885E+04 0.14480830074E+04
 0.13476644885E+04 0.10798212533E+04 0.73086403430E+03 0.40400777474E+03 0.17607557846E+03
 0.66195619071E+02 0.34435423573E+02 0.22674132338E+02 0.15887853684E+02 0.12451574493E+02
 0.11057470685E+02 0.10309740933E+02 0.95262260792E+01 0.90550092731E+01 0.91649899645E+01
 0.88240642087E+01 0.85884849303E+01 0.84304979575E+01 0.89996823135E+01 0.99254139838E+01
 0.10739392531E+02 0.12295322951E+02 0.16301043900E+02 0.24234680333E+02 0.38039973839E+02
 0.84792413631E+02 0.23546001732E+03 0.52831820057E+03 0.93079559576E+03 0.13476644885E+04
 0.16610382287E+04 0.17772561311E+04 0.16610382287E+04 0.13476644885E+04 0.93079559576E+03
 0.52831820057E+03 0.23546001732E+03 0.84792413631E+02 0.38039973839E+02 0.24234680333E+02
 0.16301043900E+02 0.12295322951E+02 0.10739392531E+02 0.99254139838E+01 0.89996823135E+01
 0.84304979575E+01 0.85884849303E+01 0.86719905150E+01 0.84125907909E+01 0.82312878626E+01
 0.88319321230E+01 0.98052918624E+01 0.10637282388E+02 0.12248206112E+02 0.16463995441E+02
 0.24821980285E+02 0.39526879196E+02 0.92700397914E+02 0.25936423988E+03 0.57676107001E+03
 0.10069970717E+04 0.14480830074E+04 0.17772561311E+04 0.18988596535E+04 0.17772561311E+04
 0.14480830074E+04 0.10069970717E+04 0.57676107001E+03 0.25936423988E+03 0.92700397914E+02
 0.39526879196E+02 0.24821980285E+02 0.16463995441E+02 0.12248206112E+02 0.10637282388E+02
 0.98052918624E+01 0.88319321230E+01 0.82312878626E+01 0.84125907909E+01 0.88240642087E+01
 0.85884849303E+01 0.84304979575E+01 0.89996823135E+01 0.99254139838E+01 0.10739392531E+02
 0.12295322951E+02 0.16301043900E+02 0.24234680333E+02 0.38039973839E+02 0.84792413631E+02
 0.23546001732E+03 0.52831820057E+03 0.93079559576E+03 0.13476644885E+04 0.16610382287E+04
 0.17772561311E+04 0.16610382287E+04 0.13476644885E+04 0.93079559576E+03 0.52831820057E+03
 0.23546001732E+03 0.84792413631E+02 0.38039973839E+02 0.24234680333E+02 0.16301043900E+02
 0.12295322951E+02 0.10739392531E+02 0.99254139838E+01 0.89996823135E+01 0.84304979575E+01
 0.85884849303E+01 0.93437074362E+01 0.91649899645E+01 0.90550092731E+01 0.95262260792E+01
 0.10309740933E+02 0.11057470685E+02 0.12451574493E+02 0.15887853684E+02 0.22674132338E+02
 0.34435423573E+02 0.66195619071E+02 0.17607557846E+03 0.40400777474E+03 0.73086403430E+03
 0.10798212533E+04 0.13476644885E+04 0.14480830074E+04 0.13476644885E+04 0.10798212533E+04
 0.73086403430E+03 0.40400777474E+03 0.17607557846E+03 0.66195619071E+02 0.34435423573E+02
 0.22674132338E+02 0.15887853684E+02 0.12451574493E+02 0.11057470685E+02 0.10309740933E+02
 0.95262260792E+01 0.90550092731E+01 0.91649899645E+01 0.10425184851E+02 0.10301914652E+02
 0.10212338865E+02 0.10508658509E+02 0.11052739873E+02 0.11650234741E+02 0.12775040469E+02
 0.15422225696E+02 0.20644263443E+02 0.29835625682E+02 0.47664555771E+02 0.10956601597E+03
 0.25443842973E+03 0.47880509800E+03 0.73086403430E+03 0.93079559576E+03 0.10069970717E+04
 0.93079559576E+03 0.73086403430E+03 0.47880509800E+03 0.25443842973E+03 0.10956601597E+03
 0.47664555771E+02 0.29835625682E+02 0.20644263443E+02 0.15422225696E+02 0.12775040469E+02
 0.11650234741E+02 0.11052739873E+02 0.10508658509E+02 0.10212338865E+02 0.10301914652E+02
 0.12433530601E+02 0.12327110934E+02 0.12168549985E+02 0.12185397922E+02 0.12367253864E+02
 0.12668609661E+02 0.13390515856E+02 0.15155533839E+02 0.18722942988E+02 0.25162315671E+02
 0.35871587940E+02 0.61354039557E+02 0.13133932284E+03 0.25443842973E+03 0.40400777474E+03
 0.52831820057E+03 0.57676107001E+03 0.52831820057E+03 0.40400777474E+03 0.25443842973E+03
 0.13133932284E+03 0.61354039557E+02 0.35871587940E+02 0.25162315671E+02 0.18722942988E+02
 0.15155533839E+02 0.13390515856E+02 0.12668609661E+02 0.12367253864E+02 0.12185397922E+02
 0.12168549985E+02 0.12327110934E+02 0.15968084901E+02 0.15810750183E+02 0.15431556661E+02
 0.15001316054E+02 0.14624685692E+02 0.14388755570E+02 0.14505204484E+02 0.15333432188E+02
 0.17359128825E+02 0.21294368950E+02 0.28067452836E+02 0.38473577698E+02 0.61354039557E+02
 0.10956601597E+03 0.17607557846E+03 0.23546001732E+03 0.25936423988E+03 0.23546001732E+03
 0.17607557846E+03 0.10956601597E+03 0.61354039557E+02 0.38473577698E+02 0.28067452836E+02
 0.21294368950E+02 0.17359128825E+02 0.15333432188E+02 0.14505204484E+02 0.14388755570E+02
 0.14624685692E+02 0.15001316054E+02 0.15431556661E+02 0.15810750183E+02 0.21883834691E+02
 0.21566744445E+02 0.20714632679E+02 0.19559397316E+02 0.18331001970E+02 0.17210645539E+02
 0.16415918184E+02 0.16185862454E+02 0.16805640062E+02 0.18673280073E+02 0.22296451832E+02
 0.28067452836E+02 0.35871587940E+02 0.47664555771E+02 0.66195619071E+02 0.84792413631E+02
 0.92700397914E+02 0.84792413631E+02 0.66195619071E+02 0.47664555771E+02 0.35871587940E+02
 0.28067452836E+02 0.22296451832E+02 0.18673280073E+02 0.16805640062E+02 0.16185862454E+02
 0.16415918184E+02 0.17210645539E+02 0.18331001970E+02 0.19559397316E+02 0.20714632679E+02
 0.21566744445E+02 0.32333401786E+02 0.31640641362E+02 0.29732077310E+02 0.27055453022E+02
 0.24174997735E+02 0.21569569665E+02 0.19468603720E+02 0.17942720848E+02 0.17174088585E+02
 0.17351227784E+02 0.18673280073E+02 0.21294368950E+02 0.25162315671E+02 0.29835625682E+02
 0.34435423573E+02 0.38039973839E+02 0.39526879196E+02 0.38039973839E+02 0.34435423573E+02
 0.29835625682E+02 0.25162315671E+02 0.21294368950E+02 0.18673280073E+02 0.17351227784E+02
 0.17174088585E+02 0.17942720848E+02 0.19468603720E+02 0.21569569665E+02 0.24174997735E+02
 0.27055453022E+02 0.29732077310E+02 0.31640641362E+02 0.49118875068E+02 0.47879711794E+02
 0.44411439987E+02 0.39394504953E+02 0.33756525158E+02 0.28417824934E+02 0.24031166399E+02
 0.20792712537E+02 0.18508886557E+02 0.17174088585E+02 0.16805640062E+02 0.17359128825E+02
 0.18722942988E+02 0.20644263443E+02 0.22674132338E+02 0.24234680333E+02 0.24821980285E+02
 0.24234680333E+02 0.22674132338E+02 0.20644263443E+02 0.18722942988E+02 0.17359128825E+02
 0.16805640062E+02 0.17174088585E+02 0.18508886557E+02 0.20792712537E+02 0.24031166399E+02
 0.28417824934E+02 0.33756525158E+02 0.39394504953E+02 0.44411439987E+02 0.47879711794E+02
 0.71432944092E+02 0.69615716257E+02 0.64466653564E+02 0.56818249403E+02 0.47848820080E+02
 0.38855158416E+02 0.30990623520E+02 0.24964125405E+02 0.20792712537E+02 0.17942720848E+02
 0.16185862454E+02 0.15333432188E+02 0.15155533839E+02 0.15422225696E+02 0.15887853684E+02
 0.16301043900E+02 0.16463995441E+02 0.16301043900E+02 0.15887853684E+02 0.15422225696E+02
 0.15155533839E+02 0.15333432188E+02 0.16185862454E+02 0.17942720848E+02 0.20792712537E+02
 0.24964125405E+02 0.30990623520E+02 0.38855158416E+02 0.47848820080E+02 0.56818249403E+02
 0.64466653564E+02 0.69615716257E+02 0.96446912789E+02 0.94129588595E+02 0.87524859317E+02
 0.77549261288E+02 0.65453105469E+02 0.52677221643E+02 0.40748958700E+02 0.30990623520E+02
 0.24031166399E+02 0.19468603720E+02 0.16415918184E+02 0.14505204484E+02 0.13390515856E+02
 0.12775040469E+02 0.12451574493E+02 0.12295322951E+02 0.12248206112E+02 0.12295322951E+02
 0.12451574493E+02 0.12775040469E+02 0.13390515856E+02 0.14505204484E+02 0.16415918184E+02
 0.19468603720E+02 0.24031166399E+02 0.30990623520E+02 0.40748958700E+02 0.52677221643E+02
 0.65453105469E+02 0.77549261288E+02 0.87524859317E+02 0.94129588595E+02 0.12172287154E+03
 0.11892473802E+03 0.11100589794E+03 0.99099130846E+02 0.84488940039E+02 0.68489687045E+02
 0.52677221643E+02 0.38855158416E+02 0.28417824934E+02 0.21569569665E+02 0.17210645539E+02
 0.14388755570E+02 0.12668609661E+02 0.11650234741E+02 0.11057470685E+02 0.10739392531E+02
 0.10637282388E+02 0.10739392531E+02 0.11057470685E+02 0.11650234741E+02 0.12668609661E+02
 0.14388755570E+02 0.17210645539E+02 0.21569569665E+02 0.28417824934E+02 0.38855158416E+02
 0.52677221643E+02 0.68489687045E+02 0.84488940039E+02 0.99099130846E+02 0.11100589794E+03
 0.11892473802E+03 0.14702651160E+03 0.14353798238E+03 0.13388451912E+03 0.11985079292E+03
 0.10302956031E+03 0.84488940039E+02 0.65453105469E+02 0.47848820080E+02 0.33756525158E+02
 0.24174997735E+02 0.18331001970E+02 0.14624685692E+02 0.12367253864E+02 0.11052739873E+02
 0.10309740933E+02 0.99254139838E+01 0.98052918624E+01 0.99254139838E+01 0.10309740933E+02
 0.11052739873E+02 0.12367253864E+02 0.14624685692E+02 0.18331001970E+02 0.24174997735E+02
 0.33756525158E+02 0.47848820080E+02 0.65453105469E+02 0.84488940039E+02 0.10302956031E+03
 0.11985079292E+03 0.13388451912E+03 0.14353798238E+03 0.17321006880E+03 0.16862752926E+03
 0.15628914082E+03 0.13922543979E+03 0.11985079292E+03 0.99099130846E+02 0.77549261288E+02
 0.56818249403E+02 0.39394504953E+02 0.27055453022E+02 0.19559397316E+02 0.15001316054E+02
 0.12185397922E+02 0.10508658509E+02 0.95262260792E+01 0.89996823135E+01 0.88319321230E+01
 0.89996823135E+01 0.95262260792E+01 0.10508658509E+02 0.12185397922E+02 0.15001316054E+02
 0.19559397316E+02 0.27055453022E+02 0.39394504953E+02 0.56818249403E+02 0.77549261288E+02
 0.99099130846E+02 0.11985079292E+03 0.13922543979E+03 0.15628914082E+03 0.16862752926E+03
 0.19893311918E+03 0.19295948740E+03 0.17719470122E+03 0.15628914082E+03 0.13388451912E+03
 0.11100589794E+03 0.87524859317E+02 0.64466653564E+02 0.44411439987E+02 0.29732077310E+02
 0.20714632679E+02 0.15431556661E+02 0.12168549985E+02 0.10212338865E+02 0.90550092731E+01
 0.84304979575E+01 0.82312878626E+01 0.84304979575E+01 0.90550092731E+01 0.10212338865E+02
 0.12168549985E+02 0.15431556661E+02 0.20714632679E+02 0.29732077310E+02 0.44411439987E+02
 0.64466653564E+02 0.87524859317E+02 0.11100589794E+03 0.13388451912E+03 0.15628914082E+03
 0.17719470122E+03 0.19295948740E+03 0.21894718493E+03 0.21175219213E+03 0.19295948740E+03
 0.16862752926E+03 0.14353798238E+03 0.11892473802E+03 0.94129588595E+02 0.69615716257E+02
 0.47879711794E+02 0.31640641362E+02 0.21566744445E+02 0.15810750183E+02 0.12327110934E+02
 0.10301914652E+02 0.91649899645E+01 0.85884849303E+01 0.84125907909E+01 0.85884849303E+01
 0.91649899645E+01 0.10301914652E+02 0.12327110934E+02 0.15810750183E+02 0.21566744445E+02
 0.31640641362E+02 0.47879711794E+02 0.69615716257E+02 0.94129588595E+02 0.11892473802E+03
 0.14353798238E+03 0.16862752926E+03 0.19295948740E+03 0.21175219213E+03 0.21894718493E+03
 0.21175219213E+03 0.19295948740E+03 0.16862752926E+03 0.14353798238E+03 0.11892473802E+03
 0.94129588595E+02 0.69615716257E+02 0.47879711794E+02 0.31640641362E+02 0.21566744445E+02
 0.15810750183E+02 0.12327110934E+02 0.10301914652E+02 0.91649899645E+01 0.85884849303E+01
 0.84125907909E+01 0.85884849303E+01 0.91649899645E+01 0.10301914652E+02 0.12327110934E+02
 0.15810750183E+02 0.21566744445E+02 0.31640641362E+02 0.47879711794E+02 0.69615716257E+02
 0.94129588595E+02 0.11892473802E+03 0.14353798238E+03 0.16862752926E+03 0.19295948740E+03
 0.21175219213E+03 0.21175219213E+03 0.20500641593E+03 0.18732967626E+03 0.16426527462E+03
 0.14017169220E+03 0.11619501195E+03 0.91862105677E+02 0.67843467147E+02 0.46678179780E+02
 0.30972532696E+02 0.21261424605E+02 0.15660741683E+02 0.12232663688E+02 0.10199730270E+02
 0.90186347415E+01 0.83947310421E+01 0.81987300801E+01 0.83947310421E+01 0.90186347415E+01
 0.10199730270E+02 0.12232663688E+02 0.15660741683E+02 0.21261424605E+02 0.30972532696E+02
 0.46678179780E+02 0.67843467147E+02 0.91862105677E+02 0.11619501195E+03 0.14017169220E+03
 0.16426527462E+03 0.18732967626E+03 0.20500641593E+03 0.19295948740E+03 0.18732967626E+03
 0.17241530707E+03 0.15246976268E+03 0.13082246598E+03 0.10845499721E+03 0.85396796368E+02
 0.62823153160E+02 0.43316491162E+02 0.29131794163E+02 0.20438680926E+02 0.15296229936E+02
 0.12094643630E+02 0.10145965755E+02 0.89645929053E+01 0.83099969942E+01 0.80975466776E+01
 0.83099969942E+01 0.89645929053E+01 0.10145965755E+02 0.12094643630E+02 0.15296229936E+02
 0.20438680926E+02 0.29131794163E+02 0.43316491162E+02 0.62823153160E+02 0.85396796368E+02
 0.10845499721E+03 0.13082246598E+03 0.15246976268E+03 0.17241530707E+03 0.18732967626E+03
 0.16862752926E+03 0.16426527462E+03 0.15246976268E+03 0.13601954559E+03 0.11714725467E+03
 0.96786650515E+02 0.75630410552E+02 0.55372015337E+02 0.38457902113E+02 0.26550098234E+02
 0.19317382340E+02 0.14877071751E+02 0.12119326989E+02 0.10455864172E+02 0.94604351345E+01
 0.89144216965E+01 0.87378229438E+01 0.89144216965E+01 0.94604351345E+01 0.10455864172E+02
 0.12119326989E+02 0.14877071751E+02 0.19317382340E+02 0.26550098234E+02 0.38457902113E+02
 0.55372015337E+02 0.75630410552E+02 0.96786650515E+02 0.11714725467E+03 0.13601954559E+03
 0.15246976268E+03 0.16426527462E+03 0.14353798238E+03 0.14017169220E+03 0.13082246598E+03
 0.11714725467E+03 0.10066031000E+03 0.82449742079E+02 0.63800473593E+02 0.46649057031E+02
 0.33005713989E+02 0.23770787330E+02 0.18116158340E+02 0.14507105765E+02 0.12299247122E+02
 0.10998716229E+02 0.10249212952E+02 0.98527364544E+01 0.97269428729E+01 0.98527364544E+01
 0.10249212952E+02 0.10998716229E+02 0.12299247122E+02 0.14507105765E+02 0.18116158340E+02
 0.23770787330E+02 0.33005713989E+02 0.46649057031E+02 0.63800473593E+02 0.82449742079E+02
 0.10066031000E+03 0.11714725467E+03 0.13082246598E+03 0.14017169220E+03 0.11892473802E+03
 0.11619501195E+03 0.10845499721E+03 0.96786650515E+02 0.82449742079E+02 0.66771879656E+02
 0.51340643242E+02 0.37927127930E+02 0.27852284868E+02 0.21251770240E+02 0.17019501458E+02
 0.14275656748E+02 0.12597860562E+02 0.11597397810E+02 0.11008545061E+02 0.10688798832E+02
 0.10585393391E+02 0.10688798832E+02 0.11008545061E+02 0.11597397810E+02 0.12597860562E+02
 0.14275656748E+02 0.17019501458E+02 0.21251770240E+02 0.27852284868E+02 0.37927127930E+02
 0.51340643242E+02 0.66771879656E+02 0.82449742079E+02 0.96786650515E+02 0.10845499721E+03
 0.11619501195E+03 0.94129588595E+02 0.91862105677E+02 0.85396796368E+02 0.75630410552E+02
 0.63800473593E+02 0.51340643242E+02 0.39757417766E+02 0.30326986504E+02 0.23621983070E+02
 0.19206253321E+02 0.16241039995E+02 0.14384253653E+02 0.13297713439E+02 0.12694186100E+02
 0.12373998074E+02 0.12217611864E+02 0.12170100981E+02 0.12217611864E+02 0.12373998074E+02
 0.12694186100E+02 0.13297713439E+02 0.14384253653E+02 0.16241039995E+02 0.19206253321E+02
 0.23621983070E+02 0.30326986504E+02 0.39757417766E+02 0.51340643242E+02 0.63800473593E+02
 0.75630410552E+02 0.85396796368E+02 0.91862105677E+02 0.69615716257E+02 0.67843467147E+02
 0.62823153160E+02 0.55372015337E+02 0.46649057031E+02 0.37927127930E+02 0.30326986504E+02
 0.24518649497E+02 0.20486934090E+02 0.17716394282E+02 0.16007149644E+02 0.15170711001E+02
 0.14983540018E+02 0.15224537795E+02 0.15658818808E+02 0.16046733442E+02 0.16200023438E+02
 0.16046733442E+02 0.15658818808E+02 0.15224537795E+02 0.14983540018E+02 0.15170711001E+02
 0.16007149644E+02 0.17716394282E+02 0.20486934090E+02 0.24518649497E+02 0.30326986504E+02
 0.37927127930E+02 0.46649057031E+02 0.55372015337E+02 0.62823153160E+02 0.67843467147E+02
 0.47879711794E+02 0.46678179780E+02 0.43316491162E+02 0.38457902113E+02 0.33005713989E+02
 0.27852284868E+02 0.23621983070E+02 0.20486934090E+02 0.18262941652E+02 0.16959896610E+02
 0.16586836075E+02 0.17096925214E+02 0.18381994485E+02 0.20200808519E+02 0.22125864574E+02
 0.23607050271E+02 0.24164667939E+02 0.23607050271E+02 0.22125864574E+02 0.20200808519E+02
 0.18381994485E+02 0.17096925214E+02 0.16586836075E+02 0.16959896610E+02 0.18262941652E+02
 0.20486934090E+02 0.23621983070E+02 0.27852284868E+02 0.33005713989E+02 0.38457902113E+02
 0.43316491162E+02 0.46678179780E+02 0.31640641362E+02 0.30972532696E+02 0.29131794163E+02
 0.26550098234E+02 0.23770787330E+02 0.21251770240E+02 0.19206253321E+02 0.17716394282E+02
 0.16959896610E+02 0.17111582045E+02 0.18357771265E+02 0.20844468506E+02 0.24523368937E+02
 0.28975645401E+02 0.33362580991E+02 0.36688101426E+02 0.38018226507E+02 0.36688101426E+02
 0.33362580991E+02 0.28975645401E+02 0.24523368937E+02 0.20844468506E+02 0.18357771265E+02
 0.17111582045E+02 0.16959896610E+02 0.17716394282E+02 0.19206253321E+02 0.21251770240E+02
 0.23770787330E+02 0.26550098234E+02 0.29131794163E+02 0.30972532696E+02 0.21566744445E+02
 0.21261424605E+02 0.20438680926E+02 0.19317382340E+02 0.18116158340E+02 0.17019501458E+02
 0.16241039995E+02 0.16007149644E+02 0.16586836075E+02 0.18357771265E+02 0.21803700790E+02
 0.27302569127E+02 0.34741181879E+02 0.45219783081E+02 0.61453753249E+02 0.77888601460E+02
 0.84914088293E+02 0.77888601460E+02 0.61453753249E+02 0.45219783081E+02 0.34741181879E+02
 0.27302569127E+02 0.21803700790E+02 0.18357771265E+02 0.16586836075E+02 0.16007149644E+02
 0.16241039995E+02 0.17019501458E+02 0.18116158340E+02 0.19317382340E+02 0.20438680926E+02
 0.21261424605E+02 0.15810750183E+02 0.15660741683E+02 0.15296229936E+02 0.14877071751E+02
 0.14507105765E+02 0.14275656748E+02 0.14384253653E+02 0.15170711001E+02 0.17096925214E+02
 0.20844468506E+02 0.27302569127E+02 0.37135015633E+02 0.57249274434E+02 0.10010642300E+03
 0.16012981066E+03 0.21417934328E+03 0.23601645556E+03 0.21417934328E+03 0.16012981066E+03
 0.10010642300E+03 0.57249274434E+02 0.37135015633E+02 0.27302569127E+02 0.20844468506E+02
 0.17096925214E+02 0.15170711001E+02 0.14384253653E+02 0.14275656748E+02 0.14507105765E+02
 0.14877071751E+02 0.15296229936E+02 0.15660741683E+02 0.12327110934E+02 0.12232663688E+02
 0.12094643630E+02 0.12119326989E+02 0.12299247122E+02 0.12597860562E+02 0.13297713439E+02
 0.14983540018E+02 0.18381994485E+02 0.24523368937E+02 0.34741181879E+02 0.57249274434E+02
 0.11973093195E+03 0.23176858233E+03 0.36943259844E+03 0.48454516130E+03 0.52952423712E+03
 0.48454516130E+03 0.36943259844E+03 0.23176858233E+03 0.11973093195E+03 0.57249274434E+02
 0.34741181879E+02 0.24523368937E+02 0.18381994485E+02 0.14983540018E+02 0.13297713439E+02
 0.12597860562E+02 0.12299247122E+02 0.12119326989E+02 0.12094643630E+02 0.12232663688E+02
 0.10301914652E+02 0.10199730270E+02 0.10145965755E+02 0.10455864172E+02 0.10998716229E+02
 0.11597397810E+02 0.12694186100E+02 0.15224537795E+02 0.20200808519E+02 0.28975645401E+02
 0.45219783081E+02 0.10010642300E+03 0.23176858233E+03 0.43885551273E+03 0.67363437627E+03
 0.86083731920E+03 0.93236021102E+03 0.86083731920E+03 0.67363437627E+03 0.43885551273E+03
 0.23176858233E+03 0.10010642300E+03 0.45219783081E+02 0.28975645401E+02 0.20200808519E+02
 0.15224537795E+02 0.12694186100E+02 0.11597397810E+02 0.10998716229E+02 0.10455864172E+02
 0.10145965755E+02 0.10199730270E+02 0.91649899645E+01 0.90186347415E+01 0.89645929053E+01
 0.94604351345E+01 0.10249212952E+02 0.11008545061E+02 0.12373998074E+02 0.15658818808E+02
 0.22125864574E+02 0.33362580991E+02 0.61453753249E+02 0.16012981066E+03 0.36943259844E+03
 0.67363437627E+03 0.10011695657E+04 0.12538836375E+04 0.13488695607E+04 0.12538836375E+04
 0.10011695657E+04 0.67363437627E+03 0.36943259844E+03 0.16012981066E+03 0.61453753249E+02
 0.33362580991E+02 0.22125864574E+02 0.15658818808E+02 0.12373998074E+02 0.11008545061E+02
 0.10249212952E+02 0.94604351345E+01 0.89645929053E+01 0.90186347415E+01 0.85884849303E+01
 0.83947310421E+01 0.83099969942E+01 0.89144216965E+01 0.98527364544E+01 0.10688798832E+02
 0.12217611864E+02 0.16046733442E+02 0.23607050271E+02 0.36688101426E+02 0.77888601460E+02
 0.21417934328E+03 0.48454516130E+03 0.86083731920E+03 0.12538836375E+04 0.15509666045E+04
 0.16614455560E+04 0.15509666045E+04 0.12538836375E+04 0.86083731920E+03 0.48454516130E+03
 0.21417934328E+03 0.77888601460E+02 0.36688101426E+02 0.23607050271E+02 0.16046733442E+02
 0.12217611864E+02 0.10688798832E+02 0.98527364544E+01 0.89144216965E+01 0.83099969942E+01
 0.83947310421E+01 0.84125907909E+01 0.81987300801E+01 0.80975466776E+01 0.87378229438E+01
 0.97269428729E+01 0.10585393391E+02 0.12170100981E+02 0.16200023438E+02 0.24164667939E+02
 0.38018226507E+02 0.84914088293E+02 0.23601645556E+03 0.52952423712E+03 0.93236021102E+03
 0.13488695607E+04 0.16614455560E+04 0.17772471529E+04 0.16614455560E+04 0.13488695607E+04
 0.93236021102E+03 0.52952423712E+03 0.23601645556E+03 0.84914088293E+02 0.38018226507E+02
 0.24164667939E+02 0.16200023438E+02 0.12170100981E+02 0.10585393391E+02 0.97269428729E+01
 0.87378229438E+01 0.80975466776E+01 0.81987300801E+01 0.85884849303E+01 0.83947310421E+01
 0.83099969942E+01 0.89144216965E+01 0.98527364544E+01 0.10688798832E+02 0.12217611864E+02
 0.16046733442E+02 0.23607050271E+02 0.36688101426E+02 0.77888601460E+02 0.21417934328E+03
 0.48454516130E+03 0.86083731920E+03 0.12538836375E+04 0.15509666045E+04 0.16614455560E+04
 0.15509666045E+04 0.12538836375E+04 0.86083731920E+03 0.48454516130E+03 0.21417934328E+03
 0.77888601460E+02 0.36688101426E+02 0.23607050271E+02 0.16046733442E+02 0.12217611864E+02
 0.10688798832E+02 0.98527364544E+01 0.89144216965E+01 0.83099969942E+01 0.83947310421E+01
 0.91649899645E+01 0.90186347415E+01 0.89645929053E+01 0.94604351345E+01 0.10249212952E+02
 0.11008545061E+02 0.12373998074E+02 0.15658818808E+02 0.22125864574E+02 0.33362580991E+02
 0.61453753249E+02 0.16012981066E+03 0.36943259844E+03 0.67363437627E+03 0.10011695657E+04
 0.12538836375E+04 0.13488695607E+04 0.12538836375E+04 0.10011695657E+04 0.67363437627E+03
 0.36943259844E+03 0.16012981066E+03 0.61453753249E+02 0.33362580991E+02 0.22125864574E+02