   4   4   0   0
  0.1455765E+02  0.3876000E-09  0.3876000E-09  0.3876000E-09  0.5000000E-15
  1.000000000000000E-004
  CAR 
 unknown system                          
     24.78908649    -66.33045347  301      7.83230378      1.00000000
    -66.330  0.0000E+00  0.0000E+00
    -66.027  0.0000E+00  0.0000E+00
    -65.723  0.0000E+00  0.0000E+00
    -65.419  0.0000E+00  0.0000E+00
    -65.116  0.0000E+00  0.0000E+00
    -64.812  0.0000E+00  0.0000E+00
    -64.508  0.0000E+00  0.0000E+00
    -64.204  0.0000E+00  0.0000E+00
    -63.901 -0.3189E-32 -0.9687E-33
    -63.597 -0.7190E-22 -0.2184E-22
    -63.293 -0.1561E-13 -0.4743E-14
    -62.989 -0.3343E-07 -0.1015E-07
    -62.686 -0.6340E-03 -0.1926E-03
    -62.382 -0.4877E-01 -0.1501E-01
    -62.078  0.1137E+01  0.3305E+00
    -61.774  0.4146E+00  0.4564E+00
    -61.471 -0.2107E-01  0.4500E+00
    -61.167 -0.2386E-04  0.4500E+00
    -60.863 -0.1914E-09  0.4500E+00
    -60.560  0.0000E+00  0.4500E+00
    -60.256  0.0000E+00  0.4500E+00
    -59.952  0.0000E+00  0.4500E+00
    -59.648  0.0000E+00  0.4500E+00
    -59.345  0.0000E+00  0.4500E+00
    -59.041  0.0000E+00  0.4500E+00
    -58.737  0.0000E+00  0.4500E+00
    -58.433  0.0000E+00  0.4500E+00
    -58.130  0.0000E+00  0.4500E+00
    -57.826  0.0000E+00  0.4500E+00
    -57.522  0.0000E+00  0.4500E+00
    -57.218  0.0000E+00  0.4500E+00
    -56.915  0.0000E+00  0.4500E+00
    -56.611  0.0000E+00  0.4500E+00
    -56.307  0.0000E+00  0.4500E+00
    -56.004  0.0000E+00  0.4500E+00
    -55.700  0.0000E+00  0.4500E+00
    -55.396  0.0000E+00  0.4500E+00
    -55.092  0.0000E+00  0.4500E+00
    -54.789  0.0000E+00  0.4500E+00
    -54.485  0.0000E+00  0.4500E+00
    -54.181  0.0000E+00  0.4500E+00
    -53.877  0.0000E+00  0.4500E+00
    -53.574  0.0000E+00  0.4500E+00
    -53.270  0.0000E+00  0.4500E+00
    -52.966  0.0000E+00  0.4500E+00
    -52.663  0.0000E+00  0.4500E+00
    -52.359  0.0000E+00  0.4500E+00
    -52.055  0.0000E+00  0.4500E+00
    -51.751  0.0000E+00  0.4500E+00
    -51.448  0.0000E+00  0.4500E+00
    -51.144  0.0000E+00  0.4500E+00
    -50.840  0.0000E+00  0.4500E+00
    -50.536  0.0000E+00  0.4500E+00
    -50.233  0.0000E+00  0.4500E+00
    -49.929  0.0000E+00  0.4500E+00
    -49.625  0.0000E+00  0.4500E+00
    -49.321  0.0000E+00  0.4500E+00
    -49.018  0.0000E+00  0.4500E+00
    -48.714  0.0000E+00  0.4500E+00
    -48.410  0.0000E+00  0.4500E+00
    -48.107  0.0000E+00  0.4500E+00
    -47.803  0.0000E+00  0.4500E+00
    -47.499  0.0000E+00  0.4500E+00
    -47.195  0.0000E+00  0.4500E+00
    -46.892  0.0000E+00  0.4500E+00
    -46.588  0.0000E+00  0.4500E+00
    -46.284  0.0000E+00  0.4500E+00
    -45.980  0.0000E+00  0.4500E+00
    -45.677  0.0000E+00  0.4500E+00
    -45.373  0.0000E+00  0.4500E+00
    -45.069  0.0000E+00  0.4500E+00
    -44.765  0.0000E+00  0.4500E+00
    -44.462  0.0000E+00  0.4500E+00
    -44.158  0.0000E+00  0.4500E+00
    -43.854  0.0000E+00  0.4500E+00
    -43.551  0.0000E+00  0.4500E+00
    -43.247  0.0000E+00  0.4500E+00
    -42.943  0.0000E+00  0.4500E+00
    -42.639  0.0000E+00  0.4500E+00
    -42.336  0.0000E+00  0.4500E+00
    -42.032  0.0000E+00  0.4500E+00
    -41.728  0.0000E+00  0.4500E+00
    -41.424  0.0000E+00  0.4500E+00
    -41.121  0.0000E+00  0.4500E+00
    -40.817  0.0000E+00  0.4500E+00
    -40.513  0.0000E+00  0.4500E+00
    -40.210  0.0000E+00  0.4500E+00
    -39.906  0.0000E+00  0.4500E+00
    -39.602  0.0000E+00  0.4500E+00
    -39.298  0.0000E+00  0.4500E+00
    -38.995  0.0000E+00  0.4500E+00
    -38.691  0.0000E+00  0.4500E+00
    -38.387  0.0000E+00  0.4500E+00
    -38.083  0.0000E+00  0.4500E+00
    -37.780  0.0000E+00  0.4500E+00
    -37.476  0.0000E+00  0.4500E+00
    -37.172  0.0000E+00  0.4500E+00
    -36.868  0.0000E+00  0.4500E+00
    -36.565  0.0000E+00  0.4500E+00
    -36.261  0.0000E+00  0.4500E+00
    -35.957  0.0000E+00  0.4500E+00
    -35.654  0.0000E+00  0.4500E+00
    -35.350  0.0000E+00  0.4500E+00
    -35.046  0.0000E+00  0.4500E+00
    -34.742  0.0000E+00  0.4500E+00
    -34.439  0.0000E+00  0.4500E+00
    -34.135  0.0000E+00  0.4500E+00
    -33.831  0.0000E+00  0.4500E+00
    -33.527  0.0000E+00  0.4500E+00
    -33.224  0.0000E+00  0.4500E+00
    -32.920  0.0000E+00  0.4500E+00
    -32.616  0.0000E+00  0.4500E+00
    -32.312  0.0000E+00  0.4500E+00
    -32.009  0.0000E+00  0.4500E+00
    -31.705  0.0000E+00  0.4500E+00
    -31.401  0.0000E+00  0.4500E+00
    -31.098  0.0000E+00  0.4500E+00
    -30.794  0.0000E+00  0.4500E+00
    -30.490  0.0000E+00  0.4500E+00
    -30.186  0.0000E+00  0.4500E+00
    -29.883  0.0000E+00  0.4500E+00
    -29.579  0.0000E+00  0.4500E+00
    -29.275  0.0000E+00  0.4500E+00
    -28.971  0.0000E+00  0.4500E+00
    -28.668  0.0000E+00  0.4500E+00
    -28.364  0.0000E+00  0.4500E+00
    -28.060  0.0000E+00  0.4500E+00
    -27.757  0.0000E+00  0.4500E+00
    -27.453  0.0000E+00  0.4500E+00
    -27.149  0.0000E+00  0.4500E+00
    -26.845  0.0000E+00  0.4500E+00
    -26.542  0.0000E+00  0.4500E+00
    -26.238  0.0000E+00  0.4500E+00
    -25.934  0.0000E+00  0.4500E+00
    -25.630  0.0000E+00  0.4500E+00
    -25.327  0.0000E+00  0.4500E+00
    -25.023  0.0000E+00  0.4500E+00
    -24.719  0.0000E+00  0.4500E+00
    -24.415  0.0000E+00  0.4500E+00
    -24.112  0.0000E+00  0.4500E+00
    -23.808  0.0000E+00  0.4500E+00
    -23.504  0.0000E+00  0.4500E+00
    -23.201  0.0000E+00  0.4500E+00
    -22.897  0.0000E+00  0.4500E+00
    -22.593  0.0000E+00  0.4500E+00
    -22.289  0.0000E+00  0.4500E+00
    -21.986  0.0000E+00  0.4500E+00
    -21.682  0.0000E+00  0.4500E+00
    -21.378  0.0000E+00  0.4500E+00
    -21.074  0.0000E+00  0.4500E+00
    -20.771  0.0000E+00  0.4500E+00
    -20.467  0.0000E+00  0.4500E+00
    -20.163  0.0000E+00  0.4500E+00
    -19.859  0.0000E+00  0.4500E+00
    -19.556  0.0000E+00  0.4500E+00
    -19.252  0.0000E+00  0.4500E+00
    -18.948  0.0000E+00  0.4500E+00
    -18.645  0.0000E+00  0.4500E+00
    -18.341  0.0000E+00  0.4500E+00
    -18.037  0.0000E+00  0.4500E+00
    -17.733  0.0000E+00  0.4500E+00
    -17.430  0.0000E+00  0.4500E+00
    -17.126  0.0000E+00  0.4500E+00
    -16.822  0.0000E+00  0.4500E+00
    -16.518  0.0000E+00  0.4500E+00
    -16.215  0.0000E+00  0.4500E+00
    -15.911  0.0000E+00  0.4500E+00
    -15.607  0.0000E+00  0.4500E+00
    -15.304  0.0000E+00  0.4500E+00
    -15.000  0.0000E+00  0.4500E+00
    -14.696  0.0000E+00  0.4500E+00
    -14.392  0.0000E+00  0.4500E+00
    -14.089  0.0000E+00  0.4500E+00
    -13.785  0.0000E+00  0.4500E+00
    -13.481  0.0000E+00  0.4500E+00
    -13.177  0.0000E+00  0.4500E+00
    -12.874  0.0000E+00  0.4500E+00
    -12.570  0.0000E+00  0.4500E+00
    -12.266  0.0000E+00  0.4500E+00
    -11.962  0.0000E+00  0.4500E+00
    -11.659  0.0000E+00  0.4500E+00
    -11.355  0.0000E+00  0.4500E+00
    -11.051  0.0000E+00  0.4500E+00
    -10.748  0.0000E+00  0.4500E+00
    -10.444  0.0000E+00  0.4500E+00
    -10.140  0.0000E+00  0.4500E+00
     -9.836  0.0000E+00  0.4500E+00
     -9.533  0.0000E+00  0.4500E+00
     -9.229  0.0000E+00  0.4500E+00
     -8.925  0.0000E+00  0.4500E+00
     -8.621  0.0000E+00  0.4500E+00
     -8.318  0.0000E+00  0.4500E+00
     -8.014  0.0000E+00  0.4500E+00
     -7.710  0.0000E+00  0.4500E+00
     -7.406  0.0000E+00  0.4500E+00
     -7.103  0.0000E+00  0.4500E+00
     -6.799  0.0000E+00  0.4500E+00
     -6.495  0.0000E+00  0.4500E+00
     -6.192  0.0000E+00  0.4500E+00
     -5.888  0.0000E+00  0.4500E+00
     -5.584  0.0000E+00  0.4500E+00
     -5.280  0.0000E+00  0.4500E+00
     -4.977  0.0000E+00  0.4500E+00
     -4.673  0.0000E+00  0.4500E+00
     -4.369  0.0000E+00  0.4500E+00
     -4.065 -0.8389E-32  0.4500E+00
     -3.762 -0.6929E-22  0.4500E+00
     -3.458 -0.5211E-14  0.4500E+00
     -3.154 -0.3575E-08  0.4500E+00
     -2.851 -0.1861E-04  0.4500E+00
     -2.547  0.1637E-03  0.4500E+00
     -2.243  0.5830E-02  0.4518E+00
     -1.939 -0.4942E-03  0.4517E+00
     -1.636  0.1499E-01  0.4562E+00
     -1.332  0.3513E-02  0.4573E+00
     -1.028  0.1204E-01  0.4609E+00
     -0.724  0.7324E-02  0.4632E+00
     -0.421  0.2225E-01  0.4699E+00
     -0.117  0.4623E-02  0.4713E+00
      0.187  0.3392E-01  0.4816E+00
      0.491  0.1558E-01  0.4864E+00
      0.794  0.5230E-01  0.5023E+00
      1.098  0.1193E+00  0.5385E+00
      1.402  0.1318E+00  0.5785E+00
      1.705  0.6296E-01  0.5977E+00
      2.009  0.2518E+00  0.6742E+00
      2.313  0.1154E+00  0.7092E+00
      2.617  0.6735E-01  0.7297E+00
      2.920  0.6912E-01  0.7507E+00
      3.224  0.1131E+00  0.7850E+00
      3.528  0.2412E-01  0.7923E+00
      3.832  0.6334E-01  0.8116E+00
      4.135  0.2358E+00  0.8832E+00
      4.439  0.2695E+00  0.9651E+00
      4.743  0.3166E+00  0.1061E+01
      5.047  0.2438E+00  0.1135E+01
      5.350  0.2694E+00  0.1217E+01
      5.654  0.2705E+00  0.1299E+01
      5.958  0.3170E+00  0.1396E+01
      6.261  0.3017E+00  0.1487E+01
      6.565  0.7408E-01  0.1510E+01
      6.869  0.4290E-01  0.1523E+01
      7.173  0.1530E-01  0.1527E+01
      7.476  0.4120E-01  0.1540E+01
      7.780  0.2652E-01  0.1548E+01
      8.084  0.3490E-01  0.1559E+01
      8.388  0.2102E-01  0.1565E+01
      8.691  0.4567E-02  0.1566E+01
      8.995  0.2771E-01  0.1575E+01
      9.299  0.3749E-01  0.1586E+01
      9.602  0.1367E-01  0.1590E+01
      9.906  0.4632E-01  0.1604E+01
     10.210  0.2211E-01  0.1611E+01
     10.514  0.8593E-02  0.1614E+01
     10.817  0.2879E-01  0.1622E+01
     11.121 -0.1204E-02  0.1622E+01
     11.425  0.9810E-02  0.1625E+01
     11.729  0.4525E-01  0.1639E+01
     12.032  0.6307E-02  0.1641E+01
     12.336  0.8767E-02  0.1643E+01
     12.640  0.6014E-01  0.1662E+01
     12.944  0.1487E-01  0.1666E+01
     13.247  0.1470E-01  0.1671E+01
     13.551  0.2548E-01  0.1678E+01
     13.855  0.3160E-01  0.1688E+01
     14.158  0.2727E-01  0.1696E+01
     14.462  0.2755E-01  0.1705E+01
     14.766  0.3010E-01  0.1714E+01
     15.070  0.2464E-01  0.1721E+01
     15.373  0.2191E-01  0.1728E+01
     15.677  0.3108E-01  0.1737E+01
     15.981  0.6943E-02  0.1739E+01
     16.285  0.3397E-01  0.1750E+01
     16.588  0.3309E-01  0.1760E+01
     16.892  0.5483E-01  0.1776E+01
     17.196  0.6187E-01  0.1795E+01
     17.500  0.2270E-01  0.1802E+01
     17.803  0.6918E-01  0.1823E+01
     18.107  0.5406E-02  0.1825E+01
     18.411  0.3206E-01  0.1835E+01
     18.714  0.1057E-02  0.1835E+01
     19.018  0.2609E-01  0.1843E+01
     19.322  0.1860E-01  0.1848E+01
     19.626 -0.9464E-03  0.1848E+01
     19.929 -0.2136E-05  0.1848E+01
     20.233 -0.3849E-04  0.1848E+01
     20.537  0.6639E-03  0.1848E+01
     20.841  0.5601E-02  0.1850E+01
     21.144 -0.1222E-03  0.1850E+01
     21.448 -0.7544E-05  0.1850E+01
     21.752 -0.7065E-09  0.1850E+01
     22.056 -0.5226E-15  0.1850E+01
     22.359  0.0000E+00  0.1850E+01
     22.663  0.0000E+00  0.1850E+01
     22.967  0.0000E+00  0.1850E+01
     23.270  0.0000E+00  0.1850E+01
     23.574  0.0000E+00  0.1850E+01
     23.878  0.0000E+00  0.1850E+01
     24.182  0.0000E+00  0.1850E+01
     24.485  0.0000E+00  0.1850E+01
     24.789  0.0000E+00  0.1850E+01
