    4    4   40    1
  0.1455765E+02  0.3876000E-09  0.3876000E-09  0.3876000E-09  0.5000000E-15
  1.000000000000000E-004
  CAR 
 unknown system                          
     62     10     37
 
  0.8333333E-01  0.8333333E-01  0.8333333E-01  0.3703704E-01
    1      -62.183166   1.000000
    2      -62.174668   1.000000
    3      -62.174668   1.000000
    4      -62.141339   1.000000
    5      -62.138311   1.000000
    6      -62.138311   1.000000
    7      -62.115750   1.000000
    8      -62.114480   1.000000
    9      -62.114480   1.000000
   10       -2.396729   1.000000
   11        0.754653   1.000000
   12        0.754653   1.000000
   13        1.633261   1.000000
   14        1.633261   1.000000
   15        1.672512   1.000000
   16        2.744967   1.000000
   17        4.265152   1.000000
   18        4.398109   1.000000
   19        4.398109   1.000000
   20        5.331324   1.000000
   21        5.331324   1.000000
   22        5.844219   1.000000
   23        5.854801   1.000000
   24        5.854801   1.000000
   25        5.933994   1.000000
   26        5.982556   1.000000
   27        5.982556   1.000000
   28        6.151354   1.000000
   29        6.284679   1.000000
   30        6.284679   1.000000
   31        9.088952  -0.000000
   32        9.091205  -0.000000
   33        9.091205  -0.000000
   34       15.467507   0.000000
   35       16.787428   0.000000
   36       16.787429   0.000000
   37       18.922355   0.000000
 
  0.2500000E+00  0.8333333E-01  0.8333333E-01  0.1111111E+00
    1      -62.169858   1.000000
    2      -62.167194   1.000000
    3      -62.158430   1.000000
    4      -62.135139   1.000000
    5      -62.132733   1.000000
    6      -62.130173   1.000000
    7      -62.123537   1.000000
    8      -62.112541   1.000000
    9      -62.111379   1.000000
   10       -1.708268   1.000000
   11        0.997944   1.000000
   12        1.061059   1.000000
   13        1.761627   1.000000
   14        1.789244   1.000000
   15        1.869497   1.000000
   16        2.908257   1.000000
   17        4.084730   1.000000
   18        4.491042   1.000000
   19        4.505756   1.000000
   20        4.920414   1.000000
   21        5.007473   1.000000
   22        5.117672   1.000000
   23        5.340581   1.000000
   24        5.443908   1.000000
   25        5.702934   1.000000
   26        5.712268   1.000000
   27        5.722124   1.000000
   28        6.087472   1.000000
   29        6.149633   1.000000
   30        6.285235   1.000000
   31        6.973613   1.000000
   32       10.537208  -0.000000
   33       10.642565  -0.000000
   34       16.238368   0.000000
   35       16.304269   0.000000
   36       16.815381   0.000000
   37       17.450327   0.000000
 
  0.4166667E+00  0.8333333E-01  0.8333333E-01  0.1111111E+00
    1      -62.163672   1.000000
    2      -62.157231   1.000000
    3      -62.149095   1.000000
    4      -62.147965   1.000000
    5      -62.140043   1.000000
    6      -62.125939   1.000000
    7      -62.120239   1.000000
    8      -62.116277   1.000000
    9      -62.111659   1.000000
   10       -0.577180   1.000000
   11        1.038059   1.000000
   12        1.295105   1.000000
   13        1.937588   1.000000
   14        1.965502   1.000000
   15        2.174699   1.000000
   16        3.217541   1.000000
   17        3.873077   1.000000
   18        3.977662   1.000000
   19        4.189047   1.000000
   20        4.211418   1.000000
   21        4.755166   1.000000
   22        4.900220   1.000000
   23        5.146632   1.000000
   24        5.297321   1.000000
   25        5.363137   1.000000
   26        5.420188   1.000000
   27        5.653046   1.000000
   28        5.715525   1.000000
   29        5.878688   1.000000
   30        6.132291   1.000000
   31        6.277194   1.000000
   32       12.387658  -0.000000
   33       12.573933  -0.000000
   34       14.428085   0.000000
   35       14.684077   0.000000
   36       17.054667   0.000000
   37       17.096921   0.000000
 
  0.2500000E+00  0.2500000E+00  0.8333333E-01  0.1111111E+00
    1      -62.172201   1.000000
    2      -62.163847   1.000000
    3      -62.154728   1.000000
    4      -62.145093   1.000000
    5      -62.135469   1.000000
    6      -62.130648   1.000000
    7      -62.121481   1.000000
    8      -62.112472   1.000000
    9      -62.108757   1.000000
   10       -1.061703   1.000000
   11        1.167856   1.000000
   12        1.396423   1.000000
   13        1.845376   1.000000
   14        1.872242   1.000000
   15        2.042880   1.000000
   16        3.017307   1.000000
   17        3.929608   1.000000
   18        4.301530   1.000000
   19        4.619439   1.000000
   20        4.622875   1.000000
   21        4.688635   1.000000
   22        4.691476   1.000000
   23        5.061906   1.000000
   24        5.464625   1.000000
   25        5.494211   1.000000
   26        5.565144   1.000000
   27        5.589662   1.000000
   28        6.000033   1.000000
   29        6.044510   1.000000
   30        6.065436   1.000000
   31        8.079245  -0.035444
   32        8.347551  -0.000822
   33       11.710584  -0.000000
   34       13.949307   0.000000
   35       16.857170   0.000000
   36       17.687260   0.000000
   37       17.710211   0.000000
 
  0.4166667E+00  0.2500000E+00  0.8333333E-01  0.2222222E+00
    1      -62.168585   1.000000
    2      -62.160626   1.000000
    3      -62.157322   1.000000
    4      -62.149520   1.000000
    5      -62.141459   1.000000
    6      -62.128902   1.000000
    7      -62.121537   1.000000
    8      -62.113731   1.000000
    9      -62.104308   1.000000
   10        0.001098   1.000000
   11        1.066407   1.000000
   12        1.647590   1.000000
   13        1.877984   1.000000
   14        2.044654   1.000000
   15        2.437235   1.000000
   16        3.151044   1.000000
   17        3.824209   1.000000
   18        3.985362   1.000000
   19        4.042021   1.000000
   20        4.264326   1.000000
   21        4.499559   1.000000
   22        4.818637   1.000000
   23        5.019089   1.000000
   24        5.215507   1.000000
   25        5.325277   1.000000
   26        5.341072   1.000000
   27        5.683266   1.000000
   28        5.915239   1.000000
   29        5.938349   1.000000
   30        5.948616   1.000000
   31        6.569908   1.000000
   32        9.702050  -0.000000
   33       11.508305  -0.000000
   34       13.534999   0.000000
   35       15.420693   0.000000
   36       17.578486   0.000000
   37       19.008483   0.000000
 
  0.4166667E+00  0.4166667E+00  0.8333333E-01  0.1111111E+00
    1      -62.167710   1.000000
    2      -62.160786   1.000000
    3      -62.147608   1.000000
    4      -62.146656   1.000000
    5      -62.136674   1.000000
    6      -62.136629   1.000000
    7      -62.123213   1.000000
    8      -62.113629   1.000000
    9      -62.100177   1.000000
   10        0.668547   1.000000
   11        1.124254   1.000000
   12        1.833950   1.000000
   13        1.942233   1.000000
   14        2.447057   1.000000
   15        2.723361   1.000000
   16        3.141772   1.000000
   17        3.683632   1.000000
   18        4.023122   1.000000
   19        4.072954   1.000000
   20        4.221552   1.000000
   21        4.383360   1.000000
   22        4.453325   1.000000
   23        4.964885   1.000000
   24        5.078007   1.000000
   25        5.136602   1.000000
   26        5.295500   1.000000
   27        5.555611   1.000000
   28        5.576479   1.000000
   29        5.699243   1.000000
   30        6.525093   1.000000
   31        7.394035   1.004137
   32        7.874516   0.325711
   33        9.308869  -0.000000
   34       14.982611   0.000000
   35       16.695215   0.000000
   36       17.021624   0.000000
   37       18.201707   0.000000
 
  0.2500000E+00  0.2500000E+00  0.2500000E+00  0.3703704E-01
    1      -62.174053   1.000000
    2      -62.159088   1.000000
    3      -62.159088   1.000000
    4      -62.136631   1.000000
    5      -62.136631   1.000000
    6      -62.131710   1.000000
    7      -62.131049   1.000000
    8      -62.111493   1.000000
    9      -62.111493   1.000000
   10       -0.508928   1.000000
   11        1.335767   1.000000
   12        1.335767   1.000000
   13        2.009538   1.000000
   14        2.009538   1.000000
   15        2.227194   1.000000
   16        2.994069   1.000000
   17        3.840923   1.000000
   18        4.426404   1.000000
   19        4.490038   1.000000
   20        4.490038   1.000000
   21        4.584094   1.000000
   22        4.584094   1.000000
   23        5.029841   1.000000
   24        5.029841   1.000000
   25        5.256226   1.000000
   26        5.490654   1.000000
   27        5.490654   1.000000
   28        6.086367   1.000000
   29        6.181850   1.000000
   30        6.181850   1.000000
   31        8.942191  -0.000000
   32        8.942191  -0.000000
   33        8.979060  -0.000000
   34       14.368150   0.000000
   35       15.064262   0.000000
   36       15.064262   0.000000
   37       20.647289   0.000000
 
  0.4166667E+00  0.2500000E+00  0.2500000E+00  0.1111111E+00
    1      -62.172837   1.000000
    2      -62.159404   1.000000
    3      -62.158696   1.000000
    4      -62.139738   1.000000
    5      -62.135605   1.000000
    6      -62.124205   1.000000
    7      -62.109491   1.000000
    8      -62.104459   1.000000
    9      -62.099088   1.000000
   10        0.355975   1.000000
   11        1.102487   1.000000
   12        1.321095   1.000000
   13        2.048497   1.000000
   14        2.066165   1.000000
   15        2.777206   1.000000
   16        3.198456   1.000000
   17        3.934023   1.000000
   18        4.088592   1.000000
   19        4.258468   1.000000
   20        4.499331   1.000000
   21        4.570049   1.000000
   22        4.604562   1.000000
   23        4.808537   1.000000
   24        4.849147   1.000000
   25        5.081287   1.000000
   26        5.677677   1.000000
   27        5.815832   1.000000
   28        6.017128   1.000000
   29        6.071548   1.000000
   30        6.080528   1.000000
   31        6.754868   1.000000
   32        9.862524  -0.000000
   33       10.040052  -0.000000
   34       12.405879  -0.000000
   35       13.179911  -0.000000
   36       16.372948   0.000000
   37       18.316058   0.000000
 
  0.4166667E+00  0.4166667E+00  0.2500000E+00  0.1111111E+00
    1      -62.179365   1.000000
    2      -62.169214   1.000000
    3      -62.162327   1.000000
    4      -62.161453   1.000000
    5      -62.125661   1.000000
    6      -62.118413   1.000000
    7      -62.111322   1.000000
    8      -62.108499   1.000000
    9      -62.097658   1.000000
   10        0.675870   1.000000
   11        1.029378   1.000000
   12        1.154305   1.000000
   13        1.876374   1.000000
   14        2.498194   1.000000
   15        2.958562   1.000000
   16        3.740981   1.000000
   17        4.187496   1.000000
   18        4.258577   1.000000
   19        4.415586   1.000000
   20        4.463544   1.000000
   21        4.555868   1.000000
   22        4.671714   1.000000
   23        4.741816   1.000000
   24        4.750831   1.000000
   25        4.851948   1.000000
   26        5.677714   1.000000
   27        5.934639   1.000000
   28        5.966694   1.000000
   29        5.969626   1.000000
   30        6.319532   1.000000
   31        7.401272   1.004717
   32        7.785963   0.690309
   33        8.953359  -0.000000
   34       12.507950  -0.000000
   35       13.849181   0.000000
   36       14.437738   0.000000
   37       15.981371   0.000000
 
  0.4166667E+00  0.4166667E+00  0.4166667E+00  0.3703704E-01
    1      -62.188656   1.000000
    2      -62.170281   1.000000
    3      -62.170281   1.000000
    4      -62.169129   1.000000
    5      -62.114324   1.000000
    6      -62.112082   1.000000
    7      -62.112082   1.000000
    8      -62.100011   1.000000
    9      -62.100011   1.000000
   10        0.664126   1.000000
   11        0.769861   1.000000
   12        0.769861   1.000000
   13        1.922209   1.000000
   14        2.853962   1.000000
   15        2.853962   1.000000
   16        4.138470   1.000000
   17        4.345104   1.000000
   18        4.345104   1.000000
   19        4.541575   1.000000
   20        4.541575   1.000000
   21        4.657892   1.000000
   22        5.131371   1.000000
   23        5.240895   1.000000
   24        5.240895   1.000000
   25        5.463536   1.000000
   26        5.988161   1.000000
   27        5.988161   1.000000
   28        6.050532   1.000000
   29        6.137664   1.000000
   30        6.137664   1.000000
   31        7.428244   1.007497
   32        7.428244   1.007497
   33        7.495032   1.019180
   34       11.413977  -0.000000
   35       12.836712  -0.000000
   36       12.836712  -0.000000
   37       13.889573   0.000000
