       N       E                     dE             d eps       ncg     rms          ort
DAV:   1     0.581238092036E+03    0.58124E+03   -0.31217E+04   370   0.167E+03
DAV:   2     0.133642389096E+02   -0.56787E+03   -0.54755E+03   370   0.518E+02
DAV:   3    -0.164496596647E+02   -0.29814E+02   -0.27931E+02   370   0.124E+02
DAV:   4    -0.172309995035E+02   -0.78134E+00   -0.77880E+00   370   0.155E+01
DAV:   5    -0.172445162326E+02   -0.13517E-01   -0.13517E-01   370   0.201E+00
SDA:   6    -0.407091127872E+01    0.13174E+02   -0.13517E-01   370   0.979E+02 0.000E+00
CGA:   7    -0.130452331061E+02   -0.89743E+01   -0.95086E+01   370   0.575E+01-0.265E+01
CGA:   8    -0.138399979395E+02   -0.79476E+00   -0.79603E+00   370   0.110E+01 0.225E-02
CGA:   9    -0.141207128267E+02   -0.28071E+00   -0.28079E+00   370   0.729E+00-0.145E-02
CGA:  10    -0.143247212902E+02   -0.20401E+00   -0.20418E+00   370   0.177E+00-0.153E-02
CGA:  11    -0.143569023964E+02   -0.32181E-01   -0.32181E-01   370   0.371E-01 0.105E-04
CGA:  12    -0.143666726185E+02   -0.97702E-02   -0.97772E-02   370   0.928E-02-0.121E-03
CGA:  13    -0.143688018680E+02   -0.21292E-02   -0.21295E-02   370   0.207E-02-0.120E-04
CGA:  14    -0.143693072718E+02   -0.50540E-03   -0.50436E-03   370   0.432E-03 0.259E-04
CGA:  15    -0.143694261573E+02   -0.11889E-03   -0.11846E-03   370   0.160E-03 0.609E-05
CGA:  16    -0.143694704842E+02   -0.44327E-04   -0.44445E-04   370   0.560E-04-0.182E-05
CGA:  17    -0.143694862799E+02   -0.15796E-04   -0.16164E-04   370   0.201E-04-0.464E-05
CGA:  18    -0.143694914380E+02   -0.51581E-05   -0.52208E-05   370   0.563E-05-0.951E-06
   1 F= -.14369491E+02 E0= -.14366633E+02  d E =-.143695E+02
       N       E                     dE             d eps       ncg     rms          ort
SDA:   1     0.165348941351E+04    0.16679E+04    0.00000E+00   370   0.404E+04 0.000E+00
CGA:   2     0.434902192351E+03   -0.12186E+04   -0.12072E+04   370   0.457E+03 0.225E+03
CGA:   3     0.334820584015E+03   -0.10008E+03   -0.10227E+03   370   0.703E+02 0.562E+02
CGA:   4     0.310402309498E+03   -0.24418E+02   -0.22997E+02   370   0.168E+02 0.144E+02
CGA:   5     0.303528086778E+03   -0.68742E+01   -0.66243E+01   370   0.430E+01 0.438E+01
CGA:   6     0.301879663684E+03   -0.16484E+01   -0.43463E+01   370   0.704E+01-0.300E+01
CGA:   7     0.300360330276E+03   -0.15193E+01   -0.16543E+01   370   0.331E+01 0.192E+01
CGA:   8     0.299816875009E+03   -0.54346E+00   -0.69733E+00   370   0.111E+01-0.229E+00
CGA:   9     0.299530083043E+03   -0.28679E+00   -0.27661E+00   370   0.686E+00 0.517E+00
CGA:  10     0.299375395148E+03   -0.15469E+00   -0.17380E+00   370   0.235E+00-0.985E-01
CGA:  11     0.299319645792E+03   -0.55749E-01   -0.56523E-01   370   0.543E-01-0.163E-01
CGA:  12     0.299304389833E+03   -0.15256E-01   -0.15254E-01   370   0.202E-01 0.185E-04
CGA:  13     0.299296483287E+03   -0.79065E-02   -0.78960E-02   370   0.850E-02 0.689E-04
CGA:  14     0.299293085011E+03   -0.33983E-02   -0.33974E-02   370   0.453E-02-0.133E-05
CGA:  15     0.299291528718E+03   -0.15563E-02   -0.15562E-02   370   0.152E-02 0.879E-05
CGA:  16     0.299290980635E+03   -0.54808E-03   -0.54560E-03   370   0.694E-03 0.314E-04
CGA:  17     0.299290752310E+03   -0.22833E-03   -0.22767E-03   370   0.258E-03 0.168E-04
CGA:  18     0.299290657252E+03   -0.95058E-04   -0.94586E-04   370   0.104E-03 0.659E-05
CGA:  19     0.299290624251E+03   -0.33002E-04   -0.32997E-04   370   0.422E-04 0.159E-06
CGA:  20     0.299290609173E+03   -0.15078E-04   -0.15326E-04   370   0.147E-04-0.317E-05
CGA:  21     0.299290604011E+03   -0.51619E-05   -0.53996E-05   370   0.841E-05-0.226E-05
   2 F= 0.29929060E+03 E0= 0.29929017E+03  d E =0.313660E+03
       N       E                     dE             d eps       ncg     rms          ort
SDA:   1     0.522358969269E+04    0.49243E+04    0.00000E+00   370   0.327E+05 0.000E+00
CGA:   2     0.302237165558E+04   -0.22012E+04   -0.63165E+04   370   0.325E+05 0.221E+05
CGA:   3     0.384680126805E+04    0.82443E+03   -0.52526E+04   370   0.289E+05 0.131E+05
CGA:   4     0.323358369796E+04   -0.61322E+03   -0.64724E+04   370   0.185E+05-0.476E+04
CGA:   5     0.192700588403E+04   -0.13066E+04   -0.24406E+04   370   0.596E+04 0.635E+04
CGA:   6     0.880897418058E+03   -0.10461E+04   -0.14453E+04   370   0.163E+04 0.167E+04
CGA:   7     0.482148477033E+03   -0.39875E+03   -0.40876E+03   370   0.857E+03 0.184E+03
CGA:   8     0.255201880660E+03   -0.22695E+03   -0.23108E+03   370   0.629E+03 0.107E+03
CGA:   9     0.123257897768E+03   -0.13194E+03   -0.14352E+03   370   0.207E+03 0.787E+02
CGA:  10     0.546291616992E+02   -0.68629E+02   -0.67406E+02   370   0.934E+02 0.243E+02
CGA:  11     0.208464982677E+02   -0.33783E+02   -0.33557E+02   370   0.479E+02 0.189E+01
CGA:  12     0.475035364282E+01   -0.16096E+02   -0.15725E+02   370   0.206E+02 0.392E+01
CGA:  13    -0.462248936607E+01   -0.93728E+01   -0.94052E+01   370   0.119E+02 0.943E-02
CGA:  14    -0.909140327107E+01   -0.44689E+01   -0.45784E+01   370   0.785E+01-0.608E+00
CGA:  15    -0.115595379415E+02   -0.24681E+01   -0.25593E+01   370   0.410E+01-0.823E+00
CGA:  16     0.146523122554E+02    0.26212E+02   -0.18315E+01   370   0.840E+02-0.207E+02
CGA:  17    -0.348800733079E+01   -0.18140E+02   -0.19910E+02   370   0.262E+02-0.329E+01
CGA:  18    -0.110023215189E+02   -0.75143E+01   -0.72079E+01   370   0.700E+01 0.457E+00
CGA:  19    -0.142979119859E+02   -0.32956E+01   -0.32824E+01   370   0.276E+01-0.194E+00
CGA:  20    -0.156922203693E+02   -0.13943E+01   -0.13974E+01   370   0.999E+00-0.689E-01
CGA:  21    -0.159944249187E+02   -0.30220E+00   -0.30489E+00   370   0.252E+00-0.361E-02
CGA:  22    -0.160541262261E+02   -0.59701E-01   -0.60690E-01   370   0.870E-01-0.330E-02
CGA:  23    -0.160867369630E+02   -0.32611E-01   -0.33094E-01   370   0.298E-01 0.326E-02
CGA:  24    -0.161035845560E+02   -0.16848E-01   -0.18746E-01   370   0.143E-01-0.920E-02
CGA:  25    -0.161065414348E+02   -0.29569E-02   -0.29510E-02   370   0.617E-02-0.170E-04
CGA:  26    -0.161084786993E+02   -0.19373E-02   -0.19359E-02   370   0.301E-02-0.191E-05
CGA:  27    -0.161094760796E+02   -0.99738E-03   -0.99842E-03   370   0.160E-02 0.147E-04
CGA:  28    -0.161102011920E+02   -0.72511E-03   -0.72511E-03   370   0.102E-02-0.494E-05
CGA:  29    -0.161105178869E+02   -0.31669E-03   -0.31573E-03   370   0.487E-03-0.468E-05
CGA:  30    -0.161106829423E+02   -0.16506E-03   -0.16522E-03   370   0.229E-03 0.115E-05
CGA:  31    -0.161107491167E+02   -0.66174E-04   -0.66201E-04   370   0.108E-03 0.172E-06
CGA:  32    -0.161107935926E+02   -0.44476E-04   -0.44452E-04   370   0.601E-04-0.126E-05
CGA:  33    -0.161108140586E+02   -0.20466E-04   -0.20307E-04   370   0.349E-04-0.179E-05
CGA:  34    -0.161108258867E+02   -0.11828E-04   -0.11775E-04   370   0.167E-04-0.680E-06
CGA:  35    -0.161108305502E+02   -0.46635E-05   -0.47764E-05   370   0.948E-05 0.869E-06
   3 F= -.16110831E+02 E0= -.16107967E+02  d E =-.174134E+01
       N       E                     dE             d eps       ncg     rms          ort
SDA:   1    -0.140637860584E+02    0.20470E+01    0.00000E+00   370   0.248E+02 0.000E+00
CGA:   2    -0.165984448993E+02   -0.25347E+01   -0.24312E+01   370   0.126E+01 0.114E+01
CGA:   3    -0.167895252164E+02   -0.19108E+00   -0.19117E+00   370   0.167E+00 0.718E-03
CGA:   4    -0.168215559679E+02   -0.32031E-01   -0.32184E-01   370   0.629E-01-0.112E-03
CGA:   5    -0.168383482690E+02   -0.16792E-01   -0.16810E-01   370   0.228E-01 0.132E-03
CGA:   6    -0.168437352602E+02   -0.53870E-02   -0.53888E-02   370   0.120E-01 0.241E-05
CGA:   7    -0.168478394007E+02   -0.41041E-02   -0.41051E-02   370   0.468E-02 0.336E-04
CGA:   8    -0.168488892244E+02   -0.10498E-02   -0.10497E-02   370   0.992E-03-0.186E-05
CGA:   9    -0.168491592534E+02   -0.27003E-03   -0.26933E-03   370   0.259E-03-0.840E-05
CGA:  10    -0.168492271059E+02   -0.67853E-04   -0.68308E-04   370   0.611E-04 0.538E-05
CGA:  11    -0.168492411121E+02   -0.14006E-04   -0.14536E-04   370   0.157E-04 0.467E-05
CGA:  12    -0.168492458356E+02   -0.47236E-05   -0.47812E-05   370   0.616E-05 0.988E-06
   4 F= -.16849246E+02 E0= -.16847312E+02  d E =-.247975E+01
       N       E                     dE             d eps       ncg     rms          ort
SDA:   1    -0.405061015037E+01    0.12799E+02    0.00000E+00   370   0.114E+03 0.000E+00
CGA:   2    -0.163618148677E+02   -0.12311E+02   -0.11585E+02   370   0.586E+01 0.793E+01
CGA:   3    -0.173064450018E+02   -0.94463E+00   -0.94368E+00   370   0.847E+00 0.150E-01
CGA:   4    -0.174610510159E+02   -0.15461E+00   -0.15569E+00   370   0.324E+00-0.768E-03
CGA:   5    -0.175439128555E+02   -0.82862E-01   -0.82915E-01   370   0.127E+00 0.674E-03
CGA:   6    -0.175729746487E+02   -0.29062E-01   -0.29076E-01   370   0.584E-01 0.748E-04
CGA:   7    -0.175933464016E+02   -0.20372E-01   -0.20354E-01   370   0.259E-01 0.266E-03
CGA:   8    -0.175988753571E+02   -0.55290E-02   -0.55308E-02   370   0.630E-02 0.608E-05
CGA:   9    -0.176004173711E+02   -0.15420E-02   -0.15409E-02   370   0.171E-02-0.226E-04
CGA:  10    -0.176008628440E+02   -0.44547E-03   -0.44558E-03   370   0.412E-03 0.257E-05
CGA:  11    -0.176009672994E+02   -0.10446E-03   -0.10515E-03   370   0.850E-04 0.167E-04
CGA:  12    -0.176009940579E+02   -0.26759E-04   -0.26718E-04   370   0.304E-04 0.498E-05
CGA:  13    -0.176010050934E+02   -0.11036E-04   -0.11066E-04   370   0.112E-04-0.667E-06
CGA:  14    -0.176010079084E+02   -0.28150E-05   -0.28298E-05   370   0.290E-05 0.385E-06
   5 F= -.17601008E+02 E0= -.17599148E+02  d E =-.323152E+01
       N       E                     dE             d eps       ncg     rms          ort
SDA:   1    -0.173432014367E+02    0.25780E+00    0.00000E+00   370   0.241E+01 0.000E+00
CGA:   2    -0.175898131174E+02   -0.24661E+00   -0.24468E+00   370   0.117E+00 0.153E-01
CGA:   3    -0.176076449781E+02   -0.17832E-01   -0.17839E-01   370   0.137E-01 0.537E-04
CGA:   4    -0.176105542729E+02   -0.29093E-02   -0.29145E-02   370   0.558E-02 0.736E-04
CGA:   5    -0.176121935884E+02   -0.16393E-02   -0.16386E-02   370   0.191E-02 0.383E-04
CGA:   6    -0.176127479274E+02   -0.55434E-03   -0.55434E-03   370   0.119E-02-0.600E-06
CGA:   7    -0.176130925786E+02   -0.34465E-03   -0.34457E-03   370   0.306E-03 0.602E-05
CGA:   8    -0.176131643327E+02   -0.71754E-04   -0.71634E-04   370   0.782E-04-0.278E-05
CGA:   9    -0.176131869588E+02   -0.22626E-04   -0.22674E-04   370   0.212E-04-0.267E-05
CGA:  10    -0.176131915889E+02   -0.46301E-05   -0.47406E-05   370   0.425E-05 0.252E-05
   6 F= -.17613192E+02 E0= -.17611247E+02  d E =-.324370E+01
       N       E                     dE             d eps       ncg     rms          ort
SDA:   1    -0.176116384745E+02    0.15485E-02    0.00000E+00   370   0.147E-01 0.000E+00
CGA:   2    -0.176131223692E+02   -0.14839E-02   -0.14876E-02   370   0.705E-03 0.320E-04
CGA:   3    -0.176132275964E+02   -0.10523E-03   -0.10570E-03   370   0.788E-04 0.417E-05
CGA:   4    -0.176132428855E+02   -0.15289E-04   -0.15617E-04   370   0.275E-04 0.561E-05
CGA:   5    -0.176132509557E+02   -0.80702E-05   -0.80098E-05   370   0.899E-05 0.318E-05
   7 F= -.17613251E+02 E0= -.17611304E+02  d E =-.324376E+01
