 vasp.5.4.4.18Apr17-6-g9f103f2a35 (build Oct  7 2025 21:22:07) complex          
  
 executed on             LinuxIFC date 2025.11.06  16:02:17
 running on    1 total cores
 distrk:  each k-point on    1 cores,    1 groups
 distr:  one band on NCORES_PER_BAND=   1 cores,    1 groups


--------------------------------------------------------------------------------------------------------


 INCAR:
 POTCAR:   PAW_PBE Au 06Sep2000                   
 POTCAR:   PAW_PBE Cu_pv 06Sep2000                
 POTCAR:   PAW_PBE Au 06Sep2000                   
   VRHFIN =Au: s1d10                                                            
   LEXCH  = PE                                                                  
   EATOM  =   926.0567 eV,   68.0632 Ry                                         
                                                                                
   TITEL  = PAW_PBE Au 06Sep2000                                                
   LULTRA =        F    use ultrasoft PP ?                                      
   IUNSCR =        1    unscreen: 0-lin 1-nonlin 2-no                           
   RPACOR =    2.330    partial core radius                                     
   POMASS =  196.966; ZVAL   =   11.000    mass and valenz                      
   RCORE  =    2.500    outmost cutoff radius                                   
   RWIGS  =    2.840; RWIGS  =    1.503    wigner-seitz radius (au A)           
   ENMAX  =  229.948; ENMIN  =  172.461 eV                                      
   RCLOC  =    1.964    cutoff for local pot                                    
   LCOR   =        T    correct aug charges                                     
   LPAW   =        T    paw PP                                                  
   EAUG   =  356.670                                                            
   DEXC   =    -.025                                                            
   RMAX   =    3.041    core radius for proj-oper                               
   RAUG   =    1.300    factor for augmentation sphere                          
   RDEP   =    2.598    radius for radial grids                                 
   QCUT   =   -4.111; QGAM   =    8.222    optimization parameters              
                                                                                
   Description                                                                  
     l     E      TYP  RCUT    TYP  RCUT                                        
     2   .000     23  2.500                                                     
     2   .000     23  2.500                                                     
     0   .000     23  2.500                                                     
     0   .000     23  2.500                                                     
     1  -.200     23  2.500                                                     
     1   .000     23  2.500                                                     
     3   .000      7   .000                                                     
  local pseudopotential read in
  partial core-charges read in
  atomic valenz-charges read in
  non local Contribution for L=           2  read in
    real space projection operators read in
  non local Contribution for L=           2  read in
    real space projection operators read in
  non local Contribution for L=           0  read in
    real space projection operators read in
  non local Contribution for L=           0  read in
    real space projection operators read in
  non local Contribution for L=           1  read in
    real space projection operators read in
  non local Contribution for L=           1  read in
    real space projection operators read in
    PAW grid and wavefunctions read in
 
   number of l-projection  operators is LMAX  =           6
   number of lm-projection operators is LMMAX =          18
 
 POTCAR:   PAW_PBE Cu_pv 06Sep2000                
   VRHFIN =Cu: d10 p1                                                           
   LEXCH  = PE                                                                  
   EATOM  =  4119.1903 eV,  302.7519 Ry                                         
                                                                                
   TITEL  = PAW_PBE Cu_pv 06Sep2000                                             
   LULTRA =        F    use ultrasoft PP ?                                      
   IUNSCR =        1    unscreen: 0-lin 1-nonlin 2-no                           
   RPACOR =    1.500    partial core radius                                     
   POMASS =   63.546; ZVAL   =   17.000    mass and valenz                      
   RCORE  =    2.000    outmost cutoff radius                                   
   RWIGS  =    2.000; RWIGS  =    1.058    wigner-seitz radius (au A)           
   ENMAX  =  368.605; ENMIN  =  276.454 eV                                      
   RCLOC  =    1.304    cutoff for local pot                                    
   LCOR   =        T    correct aug charges                                     
   LPAW   =        T    paw PP                                                  
   EAUG   =  758.233                                                            
   DEXC   =    -.002                                                            
   RMAX   =    2.402    core radius for proj-oper                               
   RAUG   =    1.300    factor for augmentation sphere                          
   RDEP   =    2.025    radius for radial grids                                 
   QCUT   =   -5.205; QGAM   =   10.410    optimization parameters              
                                                                                
   Description                                                                  
     l     E      TYP  RCUT    TYP  RCUT                                        
     1   .000     23  1.700                                                     
     1  -.100     23  1.700                                                     
     2   .000     23  2.000                                                     
     2   .000     23  2.000                                                     
     0   .000     23  1.800                                                     
     0   .000     23  1.800                                                     
     3   .000      7   .000                                                     
  local pseudopotential read in
  partial core-charges read in
  atomic valenz-charges read in
  non local Contribution for L=           1  read in
    real space projection operators read in
  non local Contribution for L=           1  read in
    real space projection operators read in
  non local Contribution for L=           2  read in
    real space projection operators read in
  non local Contribution for L=           2  read in
    real space projection operators read in
  non local Contribution for L=           0  read in
    real space projection operators read in
  non local Contribution for L=           0  read in
    real space projection operators read in
    PAW grid and wavefunctions read in
 
   number of l-projection  operators is LMAX  =           6
   number of lm-projection operators is LMMAX =          18
 

 ----------------------------------------------------------------------------- 
|                                                                             |
|  ADVICE TO THIS USER RUNNING 'VASP/VAMP'   (HEAR YOUR MASTER'S VOICE ...):  |
|                                                                             |
|      You have a (more or less) 'small supercell' and for smaller cells      |
|      it is recommended  to use the reciprocal-space projection scheme!      |
|      The real space optimization is not  efficient for small cells and it   |
|      is also less accurate ...                                              |
|      Therefore set LREAL=.FALSE. in the  INCAR file                         |
|                                                                             |
 ----------------------------------------------------------------------------- 

 Optimization of the real space projectors (new method)

 maximal supplied QI-value         = 15.12
 optimisation between [QCUT,QGAM] = [  8.77, 17.69] = [ 21.53, 87.61] Ry 
 Optimized for a Real-space Cutoff    1.74 Angstroem

   l    n(q)    QCUT    max X(q) W(low)/X(q) W(high)/X(q)  e(spline) 
   2      8     8.768     3.714    0.44E-04    0.39E-04    0.44E-07
   2      8     8.768    30.244    0.40E-03    0.29E-03    0.46E-06
   0      9     8.768    12.875    0.23E-04    0.52E-05    0.51E-08
   0      9     8.768    62.664    0.99E-04    0.91E-04    0.89E-07
   1      9     8.768     6.953    0.21E-04    0.43E-05    0.30E-07
   1      9     8.768    10.039    0.11E-03    0.45E-04    0.97E-07
 Optimization of the real space projectors (new method)

 maximal supplied QI-value         = 18.90
 optimisation between [QCUT,QGAM] = [  8.69, 17.57] = [ 21.16, 86.49] Ry 
 Optimized for a Real-space Cutoff    1.59 Angstroem

   l    n(q)    QCUT    max X(q) W(low)/X(q) W(high)/X(q)  e(spline) 
   1      8     8.693     3.506    0.57E-05    0.19E-04    0.87E-07
   1      8     8.693     4.421    0.39E-03    0.38E-03    0.20E-06
   2      7     8.693     3.723    0.66E-04    0.29E-04    0.98E-07
   2      7     8.693    16.670    0.43E-03    0.41E-03    0.16E-06
   0      8     8.693    19.435    0.18E-04    0.13E-04    0.13E-07
   0      8     8.693    60.574    0.64E-04    0.13E-04    0.15E-06
 PAW_PBE Au 06Sep2000                   :
 energy of atom  1       EATOM= -926.0567
 kinetic energy error for atom=    0.0455 (will be added to EATOM!!)
 PAW_PBE Cu_pv 06Sep2000                :
 energy of atom  2       EATOM=-4119.1903
 kinetic energy error for atom=    1.1264 (will be added to EATOM!!)
 
 
 POSCAR: Cu3Au L12 structure (expanded 2%)       
  positions in direct lattice
  No initial velocities read in
 exchange correlation table for  LEXCH =        8
   RHO(1)=    0.500       N(1)  =     2000
   RHO(2)=  100.500       N(2)  =     4000
 


--------------------------------------------------------------------------------------------------------


 ion  position               nearest neighbor table
   1  0.000  0.000  0.000-   2 2.74   3 2.74   4 2.74   3 2.74   4 2.74   2 2.74   4 2.74   4 2.74
                             2 2.74   3 2.74   3 2.74   2 2.74
   2  0.500  0.500  0.000-   1 2.74   1 2.74   1 2.74   1 2.74
   3  0.500  0.000  0.500-   1 2.74   1 2.74   1 2.74   1 2.74
   4  0.000  0.500  0.500-   1 2.74   1 2.74   1 2.74   1 2.74
 
  LATTYP: Found a simple cubic cell.
 ALAT       =     3.8760000000
  
  Lattice vectors:
  
 A1 = (   3.8760000000,   0.0000000000,   0.0000000000)
 A2 = (   0.0000000000,   3.8760000000,   0.0000000000)
 A3 = (   0.0000000000,   0.0000000000,   3.8760000000)


Analysis of symmetry for initial positions (statically):
=====================================================================
 Subroutine PRICEL returns:
 Original cell was already a primitive cell.
 

 Routine SETGRP: Setting up the symmetry group for a 
 simple cubic supercell.


 Subroutine GETGRP returns: Found 48 space group operations
 (whereof 48 operations were pure point group operations)
 out of a pool of 48 trial point group operations.


The static configuration has the point symmetry O_h .


Analysis of symmetry for dynamics (positions and initial velocities):
=====================================================================
 Subroutine PRICEL returns:
 Original cell was already a primitive cell.
 

 Routine SETGRP: Setting up the symmetry group for a 
 simple cubic supercell.


 Subroutine GETGRP returns: Found 48 space group operations
 (whereof 48 operations were pure point group operations)
 out of a pool of 48 trial point group operations.


The dynamic configuration has the point symmetry O_h .


 Subroutine INISYM returns: Found 48 space group operations
 (whereof 48 operations are pure point group operations),
 and found     1 'primitive' translations

 
 
 KPOINTS: KPOINTS — Cu3Au (L12) quick relax     

Automatic generation of k-mesh.
Space group operators:
 irot       det(A)        alpha          n_x          n_y          n_z        tau_x        tau_y        tau_z
    1     1.000000     0.000001     1.000000     0.000000     0.000000     0.000000     0.000000     0.000000
    2    -1.000000     0.000001     1.000000     0.000000     0.000000     0.000000     0.000000     0.000000
    3     1.000000   120.000000    -0.577350    -0.577350    -0.577350     0.000000     0.000000     0.000000
    4    -1.000000   120.000000    -0.577350    -0.577350    -0.577350     0.000000     0.000000     0.000000
    5     1.000000   120.000000     0.577350     0.577350     0.577350     0.000000     0.000000     0.000000
    6    -1.000000   120.000000     0.577350     0.577350     0.577350     0.000000     0.000000     0.000000
    7     1.000000    90.000000     0.000000     0.000000    -1.000000     0.000000     0.000000     0.000000
    8    -1.000000    90.000000     0.000000     0.000000    -1.000000     0.000000     0.000000     0.000000
    9     1.000000   180.000000     0.000000     0.707107     0.707107     0.000000     0.000000     0.000000
   10    -1.000000   180.000000     0.000000     0.707107     0.707107     0.000000     0.000000     0.000000
   11     1.000000    90.000000     0.000000     1.000000     0.000000     0.000000     0.000000     0.000000
   12    -1.000000    90.000000     0.000000     1.000000     0.000000     0.000000     0.000000     0.000000
   13     1.000000   180.000000     0.000000     0.000000     1.000000     0.000000     0.000000     0.000000
   14    -1.000000   180.000000     0.000000     0.000000     1.000000     0.000000     0.000000     0.000000
   15     1.000000   120.000000    -0.577350     0.577350     0.577350     0.000000     0.000000     0.000000
   16    -1.000000   120.000000    -0.577350     0.577350     0.577350     0.000000     0.000000     0.000000
   17     1.000000   120.000000    -0.577350     0.577350    -0.577350     0.000000     0.000000     0.000000
   18    -1.000000   120.000000    -0.577350     0.577350    -0.577350     0.000000     0.000000     0.000000
   19     1.000000    90.000000     0.000000     0.000000     1.000000     0.000000     0.000000     0.000000
   20    -1.000000    90.000000     0.000000     0.000000     1.000000     0.000000     0.000000     0.000000
   21     1.000000    90.000000    -1.000000     0.000000     0.000000     0.000000     0.000000     0.000000
   22    -1.000000    90.000000    -1.000000     0.000000     0.000000     0.000000     0.000000     0.000000
   23     1.000000   180.000000     0.707107     0.000000     0.707107     0.000000     0.000000     0.000000
   24    -1.000000   180.000000     0.707107     0.000000     0.707107     0.000000     0.000000     0.000000
   25     1.000000   120.000000     0.577350    -0.577350     0.577350     0.000000     0.000000     0.000000
   26    -1.000000   120.000000     0.577350    -0.577350     0.577350     0.000000     0.000000     0.000000
   27     1.000000   120.000000    -0.577350    -0.577350     0.577350     0.000000     0.000000     0.000000
   28    -1.000000   120.000000    -0.577350    -0.577350     0.577350     0.000000     0.000000     0.000000
   29     1.000000   180.000000     1.000000     0.000000     0.000000     0.000000     0.000000     0.000000
   30    -1.000000   180.000000     1.000000     0.000000     0.000000     0.000000     0.000000     0.000000
   31     1.000000    90.000000     0.000000    -1.000000     0.000000     0.000000     0.000000     0.000000
   32    -1.000000    90.000000     0.000000    -1.000000     0.000000     0.000000     0.000000     0.000000
   33     1.000000   180.000000     0.707107     0.707107     0.000000     0.000000     0.000000     0.000000
   34    -1.000000   180.000000     0.707107     0.707107     0.000000     0.000000     0.000000     0.000000
   35     1.000000    90.000000     1.000000     0.000000     0.000000     0.000000     0.000000     0.000000
   36    -1.000000    90.000000     1.000000     0.000000     0.000000     0.000000     0.000000     0.000000
   37     1.000000   120.000000     0.577350    -0.577350    -0.577350     0.000000     0.000000     0.000000
   38    -1.000000   120.000000     0.577350    -0.577350    -0.577350     0.000000     0.000000     0.000000
   39     1.000000   180.000000     0.000000     1.000000     0.000000     0.000000     0.000000     0.000000
   40    -1.000000   180.000000     0.000000     1.000000     0.000000     0.000000     0.000000     0.000000
   41     1.000000   120.000000     0.577350     0.577350    -0.577350     0.000000     0.000000     0.000000
   42    -1.000000   120.000000     0.577350     0.577350    -0.577350     0.000000     0.000000     0.000000
   43     1.000000   180.000000     0.000000    -0.707107     0.707107     0.000000     0.000000     0.000000
   44    -1.000000   180.000000     0.000000    -0.707107     0.707107     0.000000     0.000000     0.000000
   45     1.000000   180.000000     0.707107    -0.707107     0.000000     0.000000     0.000000     0.000000
   46    -1.000000   180.000000     0.707107    -0.707107     0.000000     0.000000     0.000000     0.000000
   47     1.000000   180.000000     0.707107     0.000000    -0.707107     0.000000     0.000000     0.000000
   48    -1.000000   180.000000     0.707107     0.000000    -0.707107     0.000000     0.000000     0.000000
 
 Subroutine IBZKPT returns following result:
 ===========================================
 
 Found     10 irreducible k-points:
 
 Following reciprocal coordinates:
            Coordinates               Weight
  0.083333  0.083333  0.083333      8.000000
  0.250000  0.083333  0.083333     24.000000
  0.416667  0.083333  0.083333     24.000000
  0.250000  0.250000  0.083333     24.000000
  0.416667  0.250000  0.083333     48.000000
  0.416667  0.416667  0.083333     24.000000
  0.250000  0.250000  0.250000      8.000000
  0.416667  0.250000  0.250000     24.000000
  0.416667  0.416667  0.250000     24.000000
  0.416667  0.416667  0.416667      8.000000
 
 Following cartesian coordinates:
            Coordinates               Weight
  0.021500  0.021500  0.021500      8.000000
  0.064499  0.021500  0.021500     24.000000
  0.107499  0.021500  0.021500     24.000000
  0.064499  0.064499  0.021500     24.000000
  0.107499  0.064499  0.021500     48.000000
  0.107499  0.107499  0.021500     24.000000
  0.064499  0.064499  0.064499      8.000000
  0.107499  0.064499  0.064499     24.000000
  0.107499  0.107499  0.064499     24.000000
  0.107499  0.107499  0.107499      8.000000
 


--------------------------------------------------------------------------------------------------------




 Dimension of arrays:
   k-points           NKPTS =     10   k-points in BZ     NKDIM =     10   number of bands    NBANDS=     37
   number of dos      NEDOS =    301   number of ions     NIONS =      4
   non local maximal  LDIM  =      6   non local SUM 2l+1 LMDIM =     18
   total plane-waves  NPLWV =   4096
   max r-space proj   IRMAX =   1607   max aug-charges    IRDMAX=   4501
   dimension x,y,z NGX =    16 NGY =   16 NGZ =   16
   dimension x,y,z NGXF=    32 NGYF=   32 NGZF=   32
   support grid    NGXF=    32 NGYF=   32 NGZF=   32
   ions per type =               1   3
   NGX,Y,Z   is equivalent  to a cutoff of   6.86,  6.86,  6.86 a.u.
   NGXF,Y,Z  is equivalent  to a cutoff of  13.73, 13.73, 13.73 a.u.

 SYSTEM =  unknown system                          
 POSCAR =  Cu3Au L12 structure (expanded 2%)       

 Startparameter for this run:
   NWRITE =      2    write-flag & timer
   PREC   = normal    normal or accurate (medium, high low for compatibility)
   ISTART =      0    job   : 0-new  1-cont  2-samecut
   ICHARG =      2    charge: 1-file 2-atom 10-const
   ISPIN  =      1    spin polarized calculation?
   LNONCOLLINEAR =      F non collinear calculations
   LSORBIT =      F    spin-orbit coupling
   INIWAV =      1    electr: 0-lowe 1-rand  2-diag
   LASPH  =      F    aspherical Exc in radial PAW
   METAGGA=      F    non-selfconsistent MetaGGA calc.

 Electronic Relaxation 1
   ENCUT  =  300.0 eV  22.05 Ry    4.70 a.u.   5.47  5.47  5.47*2*pi/ulx,y,z
   ENINI  =  300.0     initial cutoff
   ENAUG  =  758.2 eV  augmentation charge cutoff
   NELM   =     80;   NELMIN=  2; NELMDL= -5     # of ELM steps 
   EDIFF  = 0.1E-04   stopping-criterion for ELM
   LREAL  =      T    real-space projection
   NLSPLINE    = F    spline interpolate recip. space projectors
   LCOMPAT=      F    compatible to vasp.4.4
   GGA_COMPAT  = T    GGA compatible to vasp.4.4-vasp.4.6
   LMAXPAW     = -100 max onsite density
   LMAXMIX     =    2 max onsite mixed and CHGCAR
   VOSKOWN=      0    Vosko Wilk Nusair interpolation
   ROPT   =   -0.00050  -0.00050
 Ionic relaxation
   EDIFFG = -.3E-01   stopping-criterion for IOM
   NSW    =     40    number of steps for IOM
   NBLOCK =      1;   KBLOCK =     40    inner block; outer block 
   IBRION =      2    ionic relax: 0-MD 1-quasi-New 2-CG
   NFREE  =      1    steps in history (QN), initial steepest desc. (CG)
   ISIF   =      3    stress and relaxation
   IWAVPR =     11    prediction:  0-non 1-charg 2-wave 3-comb
   ISYM   =      2    0-nonsym 1-usesym 2-fastsym
   LCORR  =      T    Harris-Foulkes like correction to forces

   POTIM  = 0.5000    time-step for ionic-motion
   TEIN   =    0.0    initial temperature
   TEBEG  =    0.0;   TEEND  =   0.0 temperature during run
   SMASS  =  -3.00    Nose mass-parameter (am)
   estimated Nose-frequenzy (Omega)   =  0.10E-29 period in steps =****** mass=  -0.343E-27a.u.
   SCALEE = 1.0000    scale energy and forces
   NPACO  =    256;   APACO  = 16.0  distance and # of slots for P.C.
   PSTRESS=    0.0 pullay stress

  Mass of Ions in am
   POMASS = 196.97 63.55
  Ionic Valenz
   ZVAL   =  11.00 17.00
  Atomic Wigner-Seitz radii
   RWIGS  =  -1.00 -1.00
  virtual crystal weights 
   VCA    =   1.00  1.00
   NELECT =      62.0000    total number of electrons
   NUPDOWN=      -1.0000    fix difference up-down

 DOS related values:
   EMIN   =  10.00;   EMAX   =-10.00  energy-range for DOS
   EFERMI =   0.00
   ISMEAR =     1;   SIGMA  =   0.20  broadening in eV -4-tet -1-fermi 0-gaus

 Electronic relaxation 2 (details)
   IALGO  =     58    algorithm
   LDIAG  =      T    sub-space diagonalisation (order eigenvalues)
   LSUBROT=      F    optimize rotation matrix (better conditioning)
   TURBO    =      0    0=normal 1=particle mesh
   IRESTART =      0    0=no restart 2=restart with 2 vectors
   NREBOOT  =      0    no. of reboots
   NMIN     =      0    reboot dimension
   EREF     =   0.00    reference energy to select bands
   IMIX   =      4    mixing-type and parameters
     AMIX     =   0.02;   BMIX     =  0.00
     AMIX_MAG =   0.08;   BMIX_MAG =  0.00
     AMIN     =   0.02
     WC   =   100.;   INIMIX=   1;  MIXPRE=   1;  MAXMIX= -45

 Intra band minimization:
   WEIMIN = 0.0010     energy-eigenvalue tresh-hold
   EBREAK =  0.68E-07  absolut break condition
   DEPER  =   0.30     relativ break condition  

   TIME   =   0.40     timestep for ELM

  volume/ion in A,a.u.               =      14.56        98.24
  Fermi-wavevector in a.u.,A,eV,Ry     =   1.671687  3.159030 38.021989  2.794537
  Thomas-Fermi vector in A             =   2.756966
 
 Write flags
   LWAVE        =      F    write WAVECAR
   LDOWNSAMPLE  =      F    k-point downsampling of WAVECAR
   LCHARG       =      T    write CHGCAR
   LVTOT        =      F    write LOCPOT, total local potential
   LVHAR        =      F    write LOCPOT, Hartree potential only
   LELF         =      F    write electronic localiz. function (ELF)
   LORBIT       =      0    0 simple, 1 ext, 2 COOP (PROOUT), +10 PAW based schemes


 Dipole corrections
   LMONO  =      F    monopole corrections only (constant potential shift)
   LDIPOL =      F    correct potential (dipole corrections)
   IDIPOL =      0    1-x, 2-y, 3-z, 4-all directions 
   EPSILON=  1.0000000 bulk dielectric constant

 Exchange correlation treatment:
   GGA     =    --    GGA type
   LEXCH   =     8    internal setting for exchange type
   VOSKOWN=      0    Vosko Wilk Nusair interpolation
   LHFCALC =     F    Hartree Fock is set to
   LHFONE  =     F    Hartree Fock one center treatment
   AEXX    =    0.0000 exact exchange contribution

 Linear response parameters
   LEPSILON=     F    determine dielectric tensor
   LRPA    =     F    only Hartree local field effects (RPA)
   LNABLA  =     F    use nabla operator in PAW spheres
   LVEL    =     F    velocity operator in full k-point grid
   LINTERFAST=   F  fast interpolation
   KINTER  =     0    interpolate to denser k-point grid
   CSHIFT  =0.1000    complex shift for real part using Kramers Kronig
   OMEGAMAX=  -1.0    maximum frequency
   DEG_THRESHOLD= 0.2000000E-02 threshold for treating states as degnerate
   RTIME   =   -0.100 relaxation time in fs
  (WPLASMAI=    0.000 imaginary part of plasma frequency in eV, 0.658/RTIME)
   DFIELD  = 0.0000000 0.0000000 0.0000000 field for delta impulse in time
 
 Orbital magnetization related:
   ORBITALMAG=     F  switch on orbital magnetization
   LCHIMAG   =     F  perturbation theory with respect to B field
   DQ        =  0.001000  dq finite difference perturbation B field
   LLRAUG    =     F  two centre corrections for induced B field



--------------------------------------------------------------------------------------------------------


 conjugate gradient relaxation of ions
 charge density and potential will be updated during run
 non-spin polarized calculation
 Conjugate gradient for all bands (Freysoldt, et al. PRB 79, 241103 (2009))
 preconditioned conjugated gradient                                        
 perform sub-space diagonalisation
    before iterative eigenvector-optimisation
 modified Broyden-mixing scheme, WC =      100.0
 initial mixing is a Kerker type mixing with AMIX =  0.0200 and BMIX =      0.0001
 Hartree-type preconditioning will be used
 using additional bands            6
 real space projection scheme for non local part
 use partial core corrections
 no Harris-corrections to forces 
 use gradient corrections 
 use of overlap-Matrix (Vanderbilt PP)
 Methfessel and Paxton  Order N= 1 SIGMA  =   0.20


--------------------------------------------------------------------------------------------------------


  energy-cutoff  :      300.00
  volume of cell :       58.23
      direct lattice vectors                 reciprocal lattice vectors
     3.876000000  0.000000000  0.000000000     0.257997936  0.000000000  0.000000000
     0.000000000  3.876000000  0.000000000     0.000000000  0.257997936  0.000000000
     0.000000000  0.000000000  3.876000000     0.000000000  0.000000000  0.257997936

  length of vectors
     3.876000000  3.876000000  3.876000000     0.257997936  0.257997936  0.257997936


 
 k-points in units of 2pi/SCALE and weight: KPOINTS — Cu3Au (L12) quick relax     
   0.02149983  0.02149983  0.02149983       0.037
   0.06449948  0.02149983  0.02149983       0.111
   0.10749914  0.02149983  0.02149983       0.111
   0.06449948  0.06449948  0.02149983       0.111
   0.10749914  0.06449948  0.02149983       0.222
   0.10749914  0.10749914  0.02149983       0.111
   0.06449948  0.06449948  0.06449948       0.037
   0.10749914  0.06449948  0.06449948       0.111
   0.10749914  0.10749914  0.06449948       0.111
   0.10749914  0.10749914  0.10749914       0.037
 
 k-points in reciprocal lattice and weights: KPOINTS — Cu3Au (L12) quick relax     
   0.08333333  0.08333333  0.08333333       0.037
   0.25000000  0.08333333  0.08333333       0.111
   0.41666667  0.08333333  0.08333333       0.111
   0.25000000  0.25000000  0.08333333       0.111
   0.41666667  0.25000000  0.08333333       0.222
   0.41666667  0.41666667  0.08333333       0.111
   0.25000000  0.25000000  0.25000000       0.037
   0.41666667  0.25000000  0.25000000       0.111
   0.41666667  0.41666667  0.25000000       0.111
   0.41666667  0.41666667  0.41666667       0.037
 
 position of ions in fractional coordinates (direct lattice) 
   0.00000000  0.00000000  0.00000000
   0.50000000  0.50000000  0.00000000
   0.50000000  0.00000000  0.50000000
   0.00000000  0.50000000  0.50000000
 
 position of ions in cartesian coordinates  (Angst):
   0.00000000  0.00000000  0.00000000
   1.93800000  1.93800000  0.00000000
   1.93800000  0.00000000  1.93800000
   0.00000000  1.93800000  1.93800000
 


--------------------------------------------------------------------------------------------------------


 k-point  1 :   0.0833 0.0833 0.0833  plane waves:     703
 k-point  2 :   0.2500 0.0833 0.0833  plane waves:     688
 k-point  3 :   0.4167 0.0833 0.0833  plane waves:     687
 k-point  4 :   0.2500 0.2500 0.0833  plane waves:     689
 k-point  5 :   0.4167 0.2500 0.0833  plane waves:     690
 k-point  6 :   0.4167 0.4167 0.0833  plane waves:     685
 k-point  7 :   0.2500 0.2500 0.2500  plane waves:     690
 k-point  8 :   0.4167 0.2500 0.2500  plane waves:     678
 k-point  9 :   0.4167 0.4167 0.2500  plane waves:     682
 k-point 10 :   0.4167 0.4167 0.4167  plane waves:     678

 maximum and minimum number of plane-waves per node :       703      678

 maximum number of plane-waves:       703
 maximum index in each direction: 
   IXMAX=    5   IYMAX=    5   IZMAX=    5
   IXMIN=   -5   IYMIN=   -5   IZMIN=   -5


 serial   3D FFT for wavefunctions
 parallel 3D FFT for charge:
    minimum data exchange during FFTs selected (reduces bandwidth)


 total amount of memory used by VASP MPI-rank0    48002. kBytes
=======================================================================

   base      :      30000. kBytes
   nonlr-proj:        908. kBytes
   fftplans  :       1184. kBytes
   grid      :       2084. kBytes
   one-center:         62. kBytes
   wavefun   :      13764. kBytes
 
     INWAV:  cpu time    0.0000: real time    0.0000
 Broyden mixing: mesh for mixing (old mesh)
   NGX = 11   NGY = 11   NGZ = 11
  (NGX  = 32   NGY  = 32   NGZ  = 32)
  gives a total of   1331 points

 initial charge density was supplied:
 charge density of overlapping atoms calculated
 number of electron      62.0000000 magnetization 
 keeping initial charge density in first step


--------------------------------------------------------------------------------------------------------


 Maximum index for non-local projection operator         1503
 Maximum index for augmentation-charges         4139 (set IRDMAX)


--------------------------------------------------------------------------------------------------------


 First call to EWALD:  gamma=   0.457
 Maximum number of real-space cells 3x 3x 3
 Maximum number of reciprocal cells 3x 3x 3

    FEWALD:  cpu time    0.0012: real time    0.0012


--------------------------------------- Iteration      1(   1)  ---------------------------------------


    POTLOK:  cpu time    0.0089: real time    0.0089
    SETDIJ:  cpu time    0.0045: real time    0.0045
    TRIAL :  cpu time    0.1855: real time    0.3847
    CORREC:  cpu time    0.0007: real time    0.0007
    --------------------------------------------
      LOOP:  cpu time    0.2012: real time    0.4005

 eigenvalue-minimisations  :   908
 total energy-change (2. order) : 0.5812381E+03  (-0.3121669E+04)
 number of electron      62.0000000 magnetization 
 augmentation part       62.0000000 magnetization 

 Free energy of the ion-electron system (eV)
  ---------------------------------------------------
  alpha Z        PSCENC =       521.20840448
  Ewald energy   TEWEN  =     -8297.58284019
  -Hartree energ DENC   =     -4490.80799314
  -exchange      EXHF   =         0.00000000
  -V(xc)+E(xc)   XCENC  =       338.91921283
  PAW double counting   =     10439.60561056   -10863.16027776
  entropy T*S    EENTRO =         0.00131791
  eigenvalues    EBANDS =      -347.14814569
  atomic energy  EATOM  =     13280.20280305
  ---------------------------------------------------
  free energy    TOTEN  =       581.23809204 eV

  energy without entropy =      581.23677413  energy(sigma->0) =      581.23765273


--------------------------------------------------------------------------------------------------------




--------------------------------------- Iteration      1(   2)  ---------------------------------------


    TRIAL :  cpu time    0.1600: real time    0.3094
    CORREC:  cpu time    0.0007: real time    0.0008
    --------------------------------------------
      LOOP:  cpu time    0.1610: real time    0.3104

 eigenvalue-minimisations  :   780
 total energy-change (2. order) :-0.5678739E+03  (-0.5475527E+03)
 number of electron      62.0000000 magnetization 
 augmentation part       62.0000000 magnetization 

 Free energy of the ion-electron system (eV)
  ---------------------------------------------------
  alpha Z        PSCENC =       521.20840448
  Ewald energy   TEWEN  =     -8297.58284019
  -Hartree energ DENC   =     -4490.80799314
  -exchange      EXHF   =         0.00000000
  -V(xc)+E(xc)   XCENC  =       338.91921283
  PAW double counting   =     10439.60561056   -10863.16027776
  entropy T*S    EENTRO =         0.00312700
  eigenvalues    EBANDS =      -915.02380791
  atomic energy  EATOM  =     13280.20280305
  ---------------------------------------------------
  free energy    TOTEN  =        13.36423891 eV

  energy without entropy =       13.36111191  energy(sigma->0) =       13.36319658


--------------------------------------------------------------------------------------------------------




--------------------------------------- Iteration      1(   3)  ---------------------------------------


    TRIAL :  cpu time    0.1749: real time    0.3242
    CORREC:  cpu time    0.0008: real time    0.0008
    --------------------------------------------
      LOOP:  cpu time    0.1760: real time    0.3267

 eigenvalue-minimisations  :   869
 total energy-change (2. order) :-0.2981390E+02  (-0.2793148E+02)
 number of electron      62.0000000 magnetization 
 augmentation part       62.0000000 magnetization 

 Free energy of the ion-electron system (eV)
  ---------------------------------------------------
  alpha Z        PSCENC =       521.20840448
  Ewald energy   TEWEN  =     -8297.58284019
  -Hartree energ DENC   =     -4490.80799314
  -exchange      EXHF   =         0.00000000
  -V(xc)+E(xc)   XCENC  =       338.91921283
  PAW double counting   =     10439.60561056   -10863.16027776
  entropy T*S    EENTRO =        -0.00202495
  eigenvalues    EBANDS =      -944.83255453
  atomic energy  EATOM  =     13280.20280305
  ---------------------------------------------------
  free energy    TOTEN  =       -16.44965966 eV

  energy without entropy =      -16.44763471  energy(sigma->0) =      -16.44898468


--------------------------------------------------------------------------------------------------------




--------------------------------------- Iteration      1(   4)  ---------------------------------------


    TRIAL :  cpu time    0.1628: real time    0.3621
    CORREC:  cpu time    0.0008: real time    0.0280
    --------------------------------------------
      LOOP:  cpu time    0.1639: real time    0.3903

 eigenvalue-minimisations  :   780
 total energy-change (2. order) :-0.7813398E+00  (-0.7788007E+00)
 number of electron      62.0000000 magnetization 
 augmentation part       62.0000000 magnetization 

 Free energy of the ion-electron system (eV)
  ---------------------------------------------------
  alpha Z        PSCENC =       521.20840448
  Ewald energy   TEWEN  =     -8297.58284019
  -Hartree energ DENC   =     -4490.80799314
  -exchange      EXHF   =         0.00000000
  -V(xc)+E(xc)   XCENC  =       338.91921283
  PAW double counting   =     10439.60561056   -10863.16027776
  entropy T*S    EENTRO =        -0.00375084
  eigenvalues    EBANDS =      -945.61216849
  atomic energy  EATOM  =     13280.20280305
  ---------------------------------------------------
  free energy    TOTEN  =       -17.23099950 eV

  energy without entropy =      -17.22724867  energy(sigma->0) =      -17.22974922


--------------------------------------------------------------------------------------------------------




--------------------------------------- Iteration      1(   5)  ---------------------------------------


    TRIAL :  cpu time    0.1615: real time    0.2849
    CORREC:  cpu time    0.0008: real time    0.0008
    CHARGE:  cpu time    0.0097: real time    0.0097
    --------------------------------------------
      LOOP:  cpu time    0.1723: real time    0.2957

 eigenvalue-minimisations  :   790
 total energy-change (2. order) :-0.1351673E-01  (-0.1351659E-01)
 number of electron      61.9993721 magnetization 
 augmentation part       34.8078114 magnetization 

 Free energy of the ion-electron system (eV)
  ---------------------------------------------------
  alpha Z        PSCENC =       521.20840448
  Ewald energy   TEWEN  =     -8297.58284019
  -Hartree energ DENC   =     -4490.80799314
  -exchange      EXHF   =         0.00000000
  -V(xc)+E(xc)   XCENC  =       338.91921283
  PAW double counting   =     10439.60561056   -10863.16027776
  entropy T*S    EENTRO =        -0.00376198
  eigenvalues    EBANDS =      -945.62567407
  atomic energy  EATOM  =     13280.20280305
  ---------------------------------------------------
  free energy    TOTEN  =       -17.24451623 eV

  energy without entropy =      -17.24075425  energy(sigma->0) =      -17.24326224


--------------------------------------------------------------------------------------------------------




--------------------------------------- Iteration      1(   6)  ---------------------------------------


    POTLOK:  cpu time    0.0098: real time    0.0097
    SETDIJ:  cpu time    0.0048: real time    0.0048
    TRIAL :  cpu time    0.1085: real time    0.2098
    CORREC:  cpu time    0.0477: real time    0.0967
    CHARGE:  cpu time    0.0088: real time    0.0589
    --------------------------------------------
      LOOP:  cpu time    0.1799: real time    0.3802

 eigenvalue-minimisations  :     0
 total energy-change (2. order) : 0.1317360E+02  (-0.9508646E+01)
 number of electron      61.9993457 magnetization 
 augmentation part       36.2614685 magnetization 

 Free energy of the ion-electron system (eV)
  ---------------------------------------------------
  alpha Z        PSCENC =       521.20840448
  Ewald energy   TEWEN  =     -8297.58284019
  -Hartree energ DENC   =     -4013.78172676
  -exchange      EXHF   =         0.00000000
  -V(xc)+E(xc)   XCENC  =       321.86275708
  PAW double counting   =      9807.40913461   -10193.35901630
  entropy T*S    EENTRO =        -0.00158118
  eigenvalues    EBANDS =     -1430.02666526
  atomic energy  EATOM  =     13280.20280305
  ---------------------------------------------------
  free energy    TOTEN  =        -4.07091128 eV

  energy without entropy =       -4.06933010  energy(sigma->0) =       -4.07038422


--------------------------------------------------------------------------------------------------------




--------------------------------------- Iteration      1(   7)  ---------------------------------------


    POTLOK:  cpu time    0.0086: real time    0.0086
    SETDIJ:  cpu time    0.0043: real time    0.0043
    TRIAL :  cpu time    0.1039: real time    0.2043
    CORREC:  cpu time    0.0478: real time    0.0979
    CHARGE:  cpu time    0.0088: real time    0.0088
    --------------------------------------------
      LOOP:  cpu time    0.1738: real time    0.3247

 eigenvalue-minimisations  :     0
 total energy-change (2. order) :-0.8974322E+01  (-0.7960338E+00)
 number of electron      61.9993463 magnetization 
 augmentation part       36.3855158 magnetization 

 Free energy of the ion-electron system (eV)
  ---------------------------------------------------
  alpha Z        PSCENC =       521.20840448
  Ewald energy   TEWEN  =     -8297.58284019
  -Hartree energ DENC   =     -4328.38170511
  -exchange      EXHF   =         0.00000000
  -V(xc)+E(xc)   XCENC  =       332.93699396
  PAW double counting   =     10250.13707442   -10686.65345730
  entropy T*S    EENTRO =        -0.00051361
  eigenvalues    EBANDS =     -1084.91092522
  atomic energy  EATOM  =     13280.20280305
  ---------------------------------------------------
  free energy    TOTEN  =       -13.04523311 eV

  energy without entropy =      -13.04471949  energy(sigma->0) =      -13.04506190


--------------------------------------------------------------------------------------------------------




--------------------------------------- Iteration      1(   8)  ---------------------------------------


    POTLOK:  cpu time    0.0087: real time    0.0086
    SETDIJ:  cpu time    0.0043: real time    0.0043
    TRIAL :  cpu time    0.1030: real time    0.2032
    CORREC:  cpu time    0.0477: real time    0.0977
    CHARGE:  cpu time    0.0093: real time    0.0604
    --------------------------------------------
      LOOP:  cpu time    0.1734: real time    0.3745

 eigenvalue-minimisations  :     0
 total energy-change (2. order) :-0.7947648E+00  (-0.2807924E+00)
 number of electron      61.9993469 magnetization 
 augmentation part       36.4565424 magnetization 

 Free energy of the ion-electron system (eV)
  ---------------------------------------------------
  alpha Z        PSCENC =       521.20840448
  Ewald energy   TEWEN  =     -8297.58284019
  -Hartree energ DENC   =     -4344.49861037
  -exchange      EXHF   =         0.00000000
  -V(xc)+E(xc)   XCENC  =       333.65925663
  PAW double counting   =     10298.16751537   -10731.45643042
  entropy T*S    EENTRO =        -0.00420122
  eigenvalues    EBANDS =     -1073.53958286
  atomic energy  EATOM  =     13280.20280305
  ---------------------------------------------------
  free energy    TOTEN  =       -13.83999794 eV

  energy without entropy =      -13.83579671  energy(sigma->0) =      -13.83859753


--------------------------------------------------------------------------------------------------------




--------------------------------------- Iteration      1(   9)  ---------------------------------------


    POTLOK:  cpu time    0.0087: real time    0.0087
    SETDIJ:  cpu time    0.0044: real time    0.0044
    TRIAL :  cpu time    0.1033: real time    0.2045
    CORREC:  cpu time    0.0464: real time    0.0965
    CHARGE:  cpu time    0.0084: real time    0.0084
    --------------------------------------------
      LOOP:  cpu time    0.1715: real time    0.3228

 eigenvalue-minimisations  :     0
 total energy-change (2. order) :-0.2807149E+00  (-0.2041779E+00)
 number of electron      61.9993472 magnetization 
 augmentation part       36.4802524 magnetization 

 Free energy of the ion-electron system (eV)
  ---------------------------------------------------
  alpha Z        PSCENC =       521.20840448
  Ewald energy   TEWEN  =     -8297.58284019
  -Hartree energ DENC   =     -4357.88966353
  -exchange      EXHF   =         0.00000000
  -V(xc)+E(xc)   XCENC  =       334.18749165
  PAW double counting   =     10345.34344512   -10774.86134231
  entropy T*S    EENTRO =        -0.00889576
  eigenvalues    EBANDS =     -1064.72480987
  atomic energy  EATOM  =     13280.20280305
  ---------------------------------------------------
  free energy    TOTEN  =       -14.12071283 eV

  energy without entropy =      -14.11181706  energy(sigma->0) =      -14.11774757


--------------------------------------------------------------------------------------------------------




--------------------------------------- Iteration      1(  10)  ---------------------------------------


    POTLOK:  cpu time    0.0084: real time    0.0084
    SETDIJ:  cpu time    0.0043: real time    0.0042
    TRIAL :  cpu time    0.0993: real time    0.1984
    CORREC:  cpu time    0.0459: real time    0.0960
    CHARGE:  cpu time    0.0085: real time    0.0084
    --------------------------------------------
      LOOP:  cpu time    0.1666: real time    0.3162

 eigenvalue-minimisations  :     0
 total energy-change (2. order) :-0.2040085E+00  (-0.3218146E-01)
 number of electron      61.9993473 magnetization 
 augmentation part       36.4747725 magnetization 

 Free energy of the ion-electron system (eV)
  ---------------------------------------------------
  alpha Z        PSCENC =       521.20840448
  Ewald energy   TEWEN  =     -8297.58284019
  -Hartree energ DENC   =     -4375.26309436
  -exchange      EXHF   =         0.00000000
  -V(xc)+E(xc)   XCENC  =       334.70880770
  PAW double counting   =     10396.37112215   -10822.53027300
  entropy T*S    EENTRO =        -0.00879089
  eigenvalues    EBANDS =     -1051.43075536
  atomic energy  EATOM  =     13280.20280305
  ---------------------------------------------------
  free energy    TOTEN  =       -14.32472129 eV

  energy without entropy =      -14.31593040  energy(sigma->0) =      -14.32179099


--------------------------------------------------------------------------------------------------------




--------------------------------------- Iteration      1(  11)  ---------------------------------------


    POTLOK:  cpu time    0.0083: real time    0.0573
    SETDIJ:  cpu time    0.0042: real time    0.0042
    TRIAL :  cpu time    0.0987: real time    0.1988
    CORREC:  cpu time    0.0454: real time    0.0955
    CHARGE:  cpu time    0.0083: real time    0.0083
    --------------------------------------------
      LOOP:  cpu time    0.1652: real time    0.3652

 eigenvalue-minimisations  :     0
 total energy-change (2. order) :-0.3218111E-01  (-0.9777165E-02)
 number of electron      61.9993473 magnetization 
 augmentation part       36.4896765 magnetization 

 Free energy of the ion-electron system (eV)
  ---------------------------------------------------
  alpha Z        PSCENC =       521.20840448
  Ewald energy   TEWEN  =     -8297.58284019
  -Hartree energ DENC   =     -4375.40587429
  -exchange      EXHF   =         0.00000000
  -V(xc)+E(xc)   XCENC  =       334.69757857
  PAW double counting   =     10397.78824114   -10823.39766476
  entropy T*S    EENTRO =        -0.00849990
  eigenvalues    EBANDS =     -1051.85875950
  atomic energy  EATOM  =     13280.20280305
  ---------------------------------------------------
  free energy    TOTEN  =       -14.35690240 eV

  energy without entropy =      -14.34840249  energy(sigma->0) =      -14.35406910


--------------------------------------------------------------------------------------------------------




--------------------------------------- Iteration      1(  12)  ---------------------------------------


    POTLOK:  cpu time    0.0084: real time    0.0084
    SETDIJ:  cpu time    0.0042: real time    0.0042
    TRIAL :  cpu time    0.0996: real time    0.1988
    CORREC:  cpu time    0.0463: real time    0.0964
    CHARGE:  cpu time    0.0084: real time    0.0084
    --------------------------------------------
      LOOP:  cpu time    0.1672: real time    0.3169

 eigenvalue-minimisations  :     0
 total energy-change (2. order) :-0.9770222E-02  (-0.2129511E-02)
 number of electron      61.9993473 magnetization 
 augmentation part       36.4907436 magnetization 

 Free energy of the ion-electron system (eV)
  ---------------------------------------------------
  alpha Z        PSCENC =       521.20840448
  Ewald energy   TEWEN  =     -8297.58284019
  -Hartree energ DENC   =     -4375.45689744
  -exchange      EXHF   =         0.00000000
  -V(xc)+E(xc)   XCENC  =       334.72294894
  PAW double counting   =     10394.45936389   -10820.57304745
  entropy T*S    EENTRO =        -0.00843186
  eigenvalues    EBANDS =     -1051.33890799
  atomic energy  EATOM  =     13280.20280305
  ---------------------------------------------------
  free energy    TOTEN  =       -14.36667262 eV

  energy without entropy =      -14.35824076  energy(sigma->0) =      -14.36386200


--------------------------------------------------------------------------------------------------------




--------------------------------------- Iteration      1(  13)  ---------------------------------------


    POTLOK:  cpu time    0.0084: real time    0.0084
    SETDIJ:  cpu time    0.0042: real time    0.0042
    TRIAL :  cpu time    0.1005: real time    0.1996
    CORREC:  cpu time    0.0463: real time    0.0963
    CHARGE:  cpu time    0.0085: real time    0.0084
    --------------------------------------------
      LOOP:  cpu time    0.1683: real time    0.3177

 eigenvalue-minimisations  :     0
 total energy-change (2. order) :-0.2129250E-02  (-0.5043610E-03)
 number of electron      61.9993473 magnetization 
 augmentation part       36.4909124 magnetization 

 Free energy of the ion-electron system (eV)
  ---------------------------------------------------
  alpha Z        PSCENC =       521.20840448
  Ewald energy   TEWEN  =     -8297.58284019
  -Hartree energ DENC   =     -4374.60171163
  -exchange      EXHF   =         0.00000000
  -V(xc)+E(xc)   XCENC  =       334.70088916
  PAW double counting   =     10391.44291520   -10817.66432589
  entropy T*S    EENTRO =        -0.00846198
  eigenvalues    EBANDS =     -1052.06650419
  atomic energy  EATOM  =     13280.20280305
  ---------------------------------------------------
  free energy    TOTEN  =       -14.36880187 eV

  energy without entropy =      -14.36033989  energy(sigma->0) =      -14.36598121


--------------------------------------------------------------------------------------------------------




--------------------------------------- Iteration      1(  14)  ---------------------------------------


    POTLOK:  cpu time    0.0085: real time    0.0586
    SETDIJ:  cpu time    0.0042: real time    0.0042
    TRIAL :  cpu time    0.0990: real time    0.2010
    CORREC:  cpu time    0.0458: real time    0.0959
    CHARGE:  cpu time    0.0085: real time    0.0085
    --------------------------------------------
      LOOP:  cpu time    0.1663: real time    0.3685

 eigenvalue-minimisations  :     0
 total energy-change (2. order) :-0.5054037E-03  (-0.1184627E-03)
 number of electron      61.9993473 magnetization 
 augmentation part       36.4891235 magnetization 

 Free energy of the ion-electron system (eV)
  ---------------------------------------------------
  alpha Z        PSCENC =       521.20840448
  Ewald energy   TEWEN  =     -8297.58284019
  -Hartree energ DENC   =     -4374.79504713
  -exchange      EXHF   =         0.00000000
  -V(xc)+E(xc)   XCENC  =       334.70635322
  PAW double counting   =     10391.08648377   -10817.42421159
  entropy T*S    EENTRO =        -0.00848950
  eigenvalues    EBANDS =     -1051.76279089
  atomic energy  EATOM  =     13280.20280305
  ---------------------------------------------------
  free energy    TOTEN  =       -14.36930727 eV

  energy without entropy =      -14.36081777  energy(sigma->0) =      -14.36647744


--------------------------------------------------------------------------------------------------------




--------------------------------------- Iteration      1(  15)  ---------------------------------------


    POTLOK:  cpu time    0.0084: real time    0.0084
    SETDIJ:  cpu time    0.0042: real time    0.0042
    TRIAL :  cpu time    0.1002: real time    0.1993
    CORREC:  cpu time    0.0466: real time    0.0967
    CHARGE:  cpu time    0.0085: real time    0.0085
    --------------------------------------------
      LOOP:  cpu time    0.1682: real time    0.3174

 eigenvalue-minimisations  :     0
 total energy-change (2. order) :-0.1188855E-03  (-0.4444545E-04)
 number of electron      61.9993473 magnetization 
 augmentation part       36.4905467 magnetization 

 Free energy of the ion-electron system (eV)
  ---------------------------------------------------
  alpha Z        PSCENC =       521.20840448
  Ewald energy   TEWEN  =     -8297.58284019
  -Hartree energ DENC   =     -4374.32003014
  -exchange      EXHF   =         0.00000000
  -V(xc)+E(xc)   XCENC  =       334.69117743
  PAW double counting   =     10390.45869665   -10816.73576832
  entropy T*S    EENTRO =        -0.00851926
  eigenvalues    EBANDS =     -1052.28337962
  atomic energy  EATOM  =     13280.20280305
  ---------------------------------------------------
  free energy    TOTEN  =       -14.36942616 eV

  energy without entropy =      -14.36090690  energy(sigma->0) =      -14.36658640


--------------------------------------------------------------------------------------------------------




--------------------------------------- Iteration      1(  16)  ---------------------------------------


    POTLOK:  cpu time    0.0085: real time    0.0085
    SETDIJ:  cpu time    0.0044: real time    0.0042
    TRIAL :  cpu time    0.0999: real time    0.2050
    CORREC:  cpu time    0.0460: real time    0.0971
    CHARGE:  cpu time    0.0089: real time    0.0589
    --------------------------------------------
      LOOP:  cpu time    0.1679: real time    0.3745

 eigenvalue-minimisations  :     0
 total energy-change (2. order) :-0.4432688E-04  (-0.1616431E-04)
 number of electron      61.9993473 magnetization 
 augmentation part       36.4895100 magnetization 

 Free energy of the ion-electron system (eV)
  ---------------------------------------------------
  alpha Z        PSCENC =       521.20840448
  Ewald energy   TEWEN  =     -8297.58284019
  -Hartree energ DENC   =     -4374.60244757
  -exchange      EXHF   =         0.00000000
  -V(xc)+E(xc)   XCENC  =       334.70187970
  PAW double counting   =     10390.95231204   -10817.28641324
  entropy T*S    EENTRO =        -0.00854842
  eigenvalues    EBANDS =     -1051.95464948
  atomic energy  EATOM  =     13280.20280305
  ---------------------------------------------------
  free energy    TOTEN  =       -14.36947048 eV

  energy without entropy =      -14.36092206  energy(sigma->0) =      -14.36662101


--------------------------------------------------------------------------------------------------------




--------------------------------------- Iteration      1(  17)  ---------------------------------------


    POTLOK:  cpu time    0.0084: real time    0.0084
    SETDIJ:  cpu time    0.0042: real time    0.0042
    TRIAL :  cpu time    0.0988: real time    0.1979
    CORREC:  cpu time    0.0456: real time    0.0967
    CHARGE:  cpu time    0.0085: real time    0.0085
    --------------------------------------------
      LOOP:  cpu time    0.1658: real time    0.3164

 eigenvalue-minimisations  :     0
 total energy-change (2. order) :-0.1579571E-04  (-0.5220789E-05)
 number of electron      61.9993473 magnetization 
 augmentation part       36.4898593 magnetization 

 Free energy of the ion-electron system (eV)
  ---------------------------------------------------
  alpha Z        PSCENC =       521.20840448
  Ewald energy   TEWEN  =     -8297.58284019
  -Hartree energ DENC   =     -4374.35680292
  -exchange      EXHF   =         0.00000000
  -V(xc)+E(xc)   XCENC  =       334.69328044
  PAW double counting   =     10390.67950908   -10816.97582745
  entropy T*S    EENTRO =        -0.00856760
  eigenvalues    EBANDS =     -1052.22946433
  atomic energy  EATOM  =     13280.20280305
  ---------------------------------------------------
  free energy    TOTEN  =       -14.36948628 eV

  energy without entropy =      -14.36091868  energy(sigma->0) =      -14.36663041


--------------------------------------------------------------------------------------------------------




--------------------------------------- Iteration      1(  18)  ---------------------------------------


    POTLOK:  cpu time    0.0084: real time    0.0084
    SETDIJ:  cpu time    0.0042: real time    0.0042
    TRIAL :  cpu time    0.0988: real time    0.1989
    CORREC:  cpu time    0.0461: real time    0.0962
    EDDIAG:  cpu time    0.0198: real time    0.0197
    CHARGE:  cpu time    0.0088: real time    0.0588
    --------------------------------------------
      LOOP:  cpu time    0.1863: real time    0.3865

 eigenvalue-minimisations  :     0
 total energy-change (2. order) :-0.5158125E-05  (-0.1808677E-05)
 number of electron      61.9993473 magnetization 
 augmentation part       36.4897253 magnetization 

 Free energy of the ion-electron system (eV)
  ---------------------------------------------------
  alpha Z        PSCENC =       521.20840448
  Ewald energy   TEWEN  =     -8297.58284019
  -Hartree energ DENC   =     -4374.45575671
  -exchange      EXHF   =         0.00000000
  -V(xc)+E(xc)   XCENC  =       334.69635598
  PAW double counting   =     10390.81814133   -10817.13289714
  entropy T*S    EENTRO =        -0.00857601
  eigenvalues    EBANDS =     -1052.11513464
  atomic energy  EATOM  =     13280.20280305
  ---------------------------------------------------
  free energy    TOTEN  =       -14.36949144 eV

  energy without entropy =      -14.36091543  energy(sigma->0) =      -14.36663277


--------------------------------------------------------------------------------------------------------


  average scaling for gradient   0.8521


 average (electrostatic) potential at core
  the test charge radii are     1.2098  0.8297
  (the norm of the test charge is              1.0000)
       1 -46.1164       2 -80.9431       3 -80.9431       4 -80.9431
 
 
 
 E-fermi :   5.3017     XC(G=0): -12.3358     alpha+bet :-10.6995


 k-point     1 :       0.0833    0.0833    0.0833
  band No.  band energies     occupation 
      1     -64.1746      2.00000
      2     -64.1579      2.00000
      3     -64.1579      2.00000
      4     -64.1338      2.00000
      5     -64.1338      2.00000
      6     -64.1297      2.00000
      7     -64.1202      2.00000
      8     -64.1025      2.00000
      9     -64.1025      2.00000
     10      -3.1098      2.00000
     11      -0.2068      2.00000
     12      -0.2068      2.00000
     13       0.4265      2.00000
     14       0.4265      2.00000
     15       0.4527      2.00000
     16       1.3919      2.00000
     17       2.4783      2.00000
     18       2.5678      2.00000
     19       2.5678      2.00000
     20       3.2228      2.00000
     21       3.2228      2.00000
     22       3.6247      2.00000
     23       3.6586      2.00000
     24       3.6586      2.00000
     25       3.6855      2.00000
     26       3.6855      2.00000
     27       3.7054      2.00000
     28       3.8336      2.00000
     29       3.8900      2.00000
     30       3.8900      2.00000
     31       6.6929     -0.00000
     32       6.7866     -0.00000
     33       6.7866     -0.00000
     34      11.7214      0.00000
     35      12.7745      0.00000
     36      12.7745      0.00000
     37      15.4665      0.00000

 k-point     2 :       0.2500    0.0833    0.0833
  band No.  band energies     occupation 
      1     -64.1377      2.00000
      2     -64.1351      2.00000
      3     -64.1260      2.00000
      4     -64.1194      2.00000
      5     -64.1193      2.00000
      6     -64.1090      2.00000
      7     -64.0958      2.00000
      8     -64.0853      2.00000
      9     -64.0773      2.00000
     10      -2.5172      2.00000
     11      -0.0251      2.00000
     12       0.0060      2.00000
     13       0.5156      2.00000
     14       0.5313      2.00000
     15       0.5881      2.00000
     16       1.5136      2.00000
     17       2.3670      2.00000
     18       2.6427      2.00000
     19       2.6538      2.00000
     20       2.9676      2.00000
     21       3.0648      2.00000
     22       3.1017      2.00000
     23       3.3100      2.00000
     24       3.3249      2.00000
     25       3.5036      2.00000
     26       3.5190      2.00000
     27       3.5598      2.00000
     28       3.7982      2.00000
     29       3.8416      2.00000
     30       3.8950      2.00000
     31       4.6788      2.00009
     32       7.8423     -0.00000
     33       7.9768     -0.00000
     34      12.4224      0.00000
     35      12.5644      0.00000
     36      13.3669      0.00000
     37      13.8579      0.00000

 k-point     3 :       0.4167    0.0833    0.0833
  band No.  band energies     occupation 
      1     -64.1337      2.00000
      2     -64.1267      2.00000
      3     -64.1214      2.00000
      4     -64.1156      2.00000
      5     -64.1133      2.00000
      6     -64.1118      2.00000
      7     -64.1061      2.00000
      8     -64.0759      2.00000
      9     -64.0638      2.00000
     10      -1.5153      2.00000
     11      -0.0920      2.00000
     12       0.1943      2.00000
     13       0.6317      2.00000
     14       0.6370      2.00000
     15       0.8002      2.00000
     16       1.6776      2.00000
     17       2.2005      2.00000
     18       2.2804      2.00000
     19       2.4392      2.00000
     20       2.4884      2.00000
     21       2.8752      2.00000
     22       2.9492      2.00000
     23       3.1441      2.00000
     24       3.2298      2.00000
     25       3.2853      2.00000
     26       3.3646      2.00000
     27       3.4695      2.00000
     28       3.5608      2.00000
     29       3.6332      2.00000
     30       3.8351      2.00000
     31       3.8899      2.00000
     32       9.3706     -0.00000
     33       9.5809     -0.00000
     34      11.1870      0.00000
     35      11.3210      0.00000
     36      13.3258      0.00000
     37      13.3826      0.00000

 k-point     4 :       0.2500    0.2500    0.0833
  band No.  band energies     occupation 
      1     -64.1478      2.00000
      2     -64.1309      2.00000
      3     -64.1301      2.00000
      4     -64.1173      2.00000
      5     -64.1099      2.00000
      6     -64.1071      2.00000
      7     -64.1063      2.00000
      8     -64.0960      2.00000
      9     -64.0702      2.00000
     10      -1.9565      2.00000
     11       0.0773      2.00000
     12       0.2548      2.00000
     13       0.5694      2.00000
     14       0.5945      2.00000
     15       0.7006      2.00000
     16       1.5898      2.00000
     17       2.2742      2.00000
     18       2.5255      2.00000
     19       2.7390      2.00000
     20       2.7535      2.00000
     21       2.8319      2.00000
     22       2.8437      2.00000
     23       3.0425      2.00000
     24       3.3530      2.00000
     25       3.3628      2.00000
     26       3.4484      2.00000
     27       3.4501      2.00000
     28       3.7432      2.00000
     29       3.7435      2.00000
     30       3.7491      2.00000
     31       5.6026     -0.05469
     32       5.7149     -0.01277
     33       8.8284     -0.00000
     34      10.6855     -0.00000
     35      13.1336      0.00000
     36      13.9772      0.00000
     37      14.0853      0.00000

 k-point     5 :       0.4167    0.2500    0.0833
  band No.  band energies     occupation 
      1     -64.1527      2.00000
      2     -64.1463      2.00000
      3     -64.1284      2.00000
      4     -64.1240      2.00000
      5     -64.1161      2.00000
      6     -64.1149      2.00000
      7     -64.0908      2.00000
      8     -64.0854      2.00000
      9     -64.0552      2.00000
     10      -1.0150      2.00000
     11      -0.0640      2.00000
     12       0.4365      2.00000
     13       0.5841      2.00000
     14       0.7017      2.00000
     15       1.0164      2.00000
     16       1.6073      2.00000
     17       2.2112      2.00000
     18       2.2784      2.00000
     19       2.3548      2.00000
     20       2.5273      2.00000
     21       2.6881      2.00000
     22       2.8913      2.00000
     23       3.0135      2.00000
     24       3.1751      2.00000
     25       3.2765      2.00000
     26       3.3004      2.00000
     27       3.5140      2.00000
     28       3.6675      2.00000
     29       3.6768      2.00000
     30       3.6883      2.00000
     31       4.1940      2.00000
     32       6.9192     -0.00000
     33       8.5817     -0.00000
     34      10.2823     -0.00000
     35      11.9780      0.00000
     36      13.8925      0.00000
     37      15.1515      0.00000

 k-point     6 :       0.4167    0.4167    0.0833
  band No.  band energies     occupation 
      1     -64.1323      2.00000
      2     -64.1267      2.00000
      3     -64.1151      2.00000
      4     -64.1117      2.00000
      5     -64.1098      2.00000
      6     -64.1065      2.00000
      7     -64.0922      2.00000
      8     -64.0847      2.00000
      9     -64.0782      2.00000
     10      -0.4078      2.00000
     11      -0.0196      2.00000
     12       0.5465      2.00000
     13       0.6276      2.00000
     14       1.0155      2.00000
     15       1.2363      2.00000
     16       1.6435      2.00000
     17       1.9868      2.00000
     18       2.3550      2.00000
     19       2.3995      2.00000
     20       2.5106      2.00000
     21       2.6142      2.00000
     22       2.6519      2.00000
     23       3.0004      2.00000
     24       3.0924      2.00000
     25       3.1574      2.00000
     26       3.2465      2.00000
     27       3.4240      2.00000
     28       3.4252      2.00000
     29       3.5218      2.00000
     30       4.1310      2.00000
     31       4.9255      2.02328
     32       5.2197      1.63086
     33       6.5712     -0.00000
     34      11.5606      0.00000
     35      13.0865      0.00000
     36      13.4081      0.00000
     37      14.5593      0.00000

 k-point     7 :       0.2500    0.2500    0.2500
  band No.  band energies     occupation 
      1     -64.1340      2.00000
      2     -64.1259      2.00000
      3     -64.1259      2.00000
      4     -64.1182      2.00000
      5     -64.1163      2.00000
      6     -64.1163      2.00000
      7     -64.1080      2.00000
      8     -64.1080      2.00000
      9     -64.0777      2.00000
     10      -1.4658      2.00000
     11       0.1839      2.00000
     12       0.1839      2.00000
     13       0.7029      2.00000
     14       0.7029      2.00000
     15       0.8165      2.00000
     16       1.5600      2.00000
     17       2.2290      2.00000
     18       2.6552      2.00000
     19       2.6603      2.00000
     20       2.6603      2.00000
     21       2.7433      2.00000
     22       2.7433      2.00000
     23       3.0288      2.00000
     24       3.0288      2.00000
     25       3.2259      2.00000
     26       3.3794      2.00000
     27       3.3794      2.00000
     28       3.8007      2.00000
     29       3.8271      2.00000
     30       3.8271      2.00000
     31       6.2676     -0.00000
     32       6.3378     -0.00000
     33       6.3378     -0.00000
     34      10.9984      0.00000
     35      11.6314      0.00000
     36      11.6314      0.00000
     37      16.6354      0.00000

 k-point     8 :       0.4167    0.2500    0.2500
  band No.  band energies     occupation 
      1     -64.1386      2.00000
      2     -64.1252      2.00000
      3     -64.1147      2.00000
      4     -64.1025      2.00000
      5     -64.0934      2.00000
      6     -64.0865      2.00000
      7     -64.0818      2.00000
      8     -64.0611      2.00000
      9     -64.0492      2.00000
     10      -0.6880      2.00000
     11      -0.0271      2.00000
     12       0.1552      2.00000
     13       0.7174      2.00000
     14       0.7316      2.00000
     15       1.2547      2.00000
     16       1.6700      2.00000
     17       2.2649      2.00000
     18       2.4038      2.00000
     19       2.5470      2.00000
     20       2.7178      2.00000
     21       2.7330      2.00000
     22       2.7480      2.00000
     23       2.8889      2.00000
     24       2.9229      2.00000
     25       3.1164      2.00000
     26       3.5271      2.00000
     27       3.6063      2.00000
     28       3.7598      2.00000
     29       3.7659      2.00000
     30       3.7807      2.00000
     31       4.4008      2.00000
     32       7.2177     -0.00000
     33       7.3762     -0.00000
     34       9.0998     -0.00000
     35       9.7851     -0.00000
     36      12.7676      0.00000
     37      14.5238      0.00000

 k-point     9 :       0.4167    0.4167    0.2500
  band No.  band energies     occupation 
      1     -64.1539      2.00000
      2     -64.1358      2.00000
      3     -64.1228      2.00000
      4     -64.1222      2.00000
      5     -64.1117      2.00000
      6     -64.0853      2.00000
      7     -64.0793      2.00000
      8     -64.0716      2.00000
      9     -64.0647      2.00000
     10      -0.3784      2.00000
     11      -0.0786      2.00000
     12       0.0249      2.00000
     13       0.5909      2.00000
     14       1.0534      2.00000
     15       1.3538      2.00000
     16       2.0821      2.00000
     17       2.4321      2.00000
     18       2.5125      2.00000
     19       2.6436      2.00000
     20       2.6799      2.00000
     21       2.7899      2.00000
     22       2.8604      2.00000
     23       2.8783      2.00000
     24       2.8815      2.00000
     25       2.9552      2.00000
     26       3.5111      2.00000
     27       3.6843      2.00000
     28       3.6992      2.00000
     29       3.7074      2.00000
     30       3.9998      2.00000
     31       5.0330      2.06741
     32       5.2705      1.25783
     33       6.4823     -0.00000
     34       9.1100     -0.00000
     35      10.4082     -0.00000
     36      10.9395      0.00000
     37      12.3588      0.00000

 k-point    10 :       0.4167    0.4167    0.4167
  band No.  band energies     occupation 
      1     -64.1595      2.00000
      2     -64.1253      2.00000
      3     -64.1253      2.00000
      4     -64.1217      2.00000
      5     -64.0874      2.00000
      6     -64.0874      2.00000
      7     -64.0854      2.00000
      8     -64.0724      2.00000
      9     -64.0724      2.00000
     10      -0.3650      2.00000
     11      -0.2729      2.00000
     12      -0.2729      2.00000
     13       0.6537      2.00000
     14       1.2755      2.00000
     15       1.2755      2.00000
     16       2.3693      2.00000
     17       2.5268      2.00000
     18       2.5268      2.00000
     19       2.7288      2.00000
     20       2.7288      2.00000
     21       2.8105      2.00000
     22       3.2315      2.00000
     23       3.3090      2.00000
     24       3.3090      2.00000
     25       3.6827      2.00000
     26       3.7219      2.00000
     27       3.7219      2.00000
     28       3.7828      2.00000
     29       3.7980      2.00000
     30       3.7980      2.00000
     31       5.2746      1.22335
     32       5.2746      1.22335
     33       5.3232      0.81731
     34       8.0554     -0.00000
     35       9.3220     -0.00000
     36       9.3220     -0.00000
     37      10.3675     -0.00000


--------------------------------------------------------------------------------------------------------


 soft charge-density along one line, spin component           1
         0         1         2         3         4         5         6         7         8         9
 total charge-density along one line
 
 pseudopotential strength for first ion, spin component:           1
-10.014  -0.000   0.000  -0.000   0.000  -0.071   0.000  -0.000
 -0.000 -10.014   0.000  -0.000   0.000   0.000  -0.071  -0.000
  0.000   0.000  -9.994   0.000  -0.000  -0.000  -0.000  -0.073
 -0.000  -0.000   0.000 -10.014   0.000   0.000   0.000  -0.000
  0.000   0.000  -0.000   0.000  -9.994  -0.000  -0.000   0.000
 -0.071   0.000  -0.000   0.000  -0.000   0.280   0.000   0.000
  0.000  -0.071  -0.000   0.000  -0.000   0.000   0.280   0.000
 -0.000  -0.000  -0.073  -0.000   0.000   0.000   0.000   0.280
  0.000   0.000  -0.000  -0.071  -0.000  -0.000  -0.000   0.000
 -0.000  -0.000   0.000  -0.000  -0.073   0.000   0.000  -0.000
  0.000   0.000  -0.000  -0.000  -0.000   0.000   0.000   0.000
 -0.000  -0.000   0.000   0.000   0.000   0.000   0.000  -0.000
  0.000   0.000  -0.000  -0.000  -0.000  -0.000  -0.000   0.000
 -0.000   0.000   0.000   0.000   0.000   0.000  -0.000  -0.000
  0.000  -0.000  -0.000   0.000   0.000  -0.000   0.000   0.000
 -0.000  -0.000   0.000   0.000   0.000   0.000   0.000  -0.000
  0.000  -0.000  -0.000  -0.000  -0.000  -0.000   0.000   0.000
 -0.000   0.000   0.000  -0.000  -0.000   0.000  -0.000  -0.000
 total augmentation occupancy for first ion, spin component:           1
  1.878   0.000   0.000   0.000   0.000  -0.040  -0.000  -0.000  -0.000  -0.000   0.000  -0.000   0.000   0.000   0.000   0.000
 -0.000   1.878  -0.000   0.000   0.000   0.000  -0.040   0.000  -0.000   0.000  -0.000  -0.000   0.000   0.000   0.000   0.000
  0.000  -0.000   1.932   0.000   0.000  -0.000   0.000  -0.118  -0.000  -0.000   0.000   0.000   0.000   0.000   0.000   0.000
 -0.000   0.000   0.000   1.878   0.000   0.000  -0.000   0.000  -0.040  -0.000  -0.000  -0.000   0.000   0.000   0.000   0.000
 -0.000   0.000   0.000   0.000   1.932   0.000  -0.000   0.000   0.000  -0.118   0.000   0.000   0.000   0.000   0.000   0.000
 -0.040   0.000  -0.000   0.000   0.000   0.149   0.000  -0.000   0.000   0.000   0.000   0.000   0.000   0.000   0.000   0.000
 -0.000  -0.040  -0.000  -0.000   0.000  -0.000   0.149  -0.000   0.000   0.000   0.000   0.000   0.000   0.000   0.000   0.000
 -0.000   0.000  -0.118   0.000   0.000  -0.000   0.000   0.153   0.000  -0.000  -0.000   0.000   0.000   0.000   0.000   0.000
 -0.000  -0.000   0.000  -0.040   0.000   0.000   0.000  -0.000   0.149  -0.000  -0.000  -0.000   0.000   0.000   0.000   0.000
  0.000  -0.000   0.000  -0.000  -0.118  -0.000   0.000   0.000  -0.000   0.153   0.000   0.000   0.000   0.000   0.000   0.000
  0.000  -0.000   0.000   0.000  -0.000   0.000   0.000  -0.000  -0.000   0.000   1.294  -0.302   0.000   0.000   0.000   0.000
 -0.000  -0.000   0.000  -0.000   0.000   0.000   0.000  -0.000  -0.000   0.000  -0.302   0.170   0.000   0.000   0.000   0.000
  0.000   0.000   0.000   0.000   0.000   0.000   0.000   0.000   0.000   0.000   0.000   0.000   0.182  -0.000   0.000  -0.010
  0.000   0.000   0.000   0.000   0.000   0.000   0.000   0.000   0.000   0.000   0.000   0.000  -0.000   0.182  -0.000  -0.000
  0.000   0.000   0.000   0.000   0.000   0.000   0.000   0.000   0.000   0.000   0.000   0.000  -0.000  -0.000   0.182   0.000
  0.000   0.000   0.000   0.000   0.000   0.000   0.000   0.000   0.000   0.000   0.000   0.000  -0.010  -0.000  -0.000   0.001
  0.000   0.000   0.000   0.000   0.000   0.000   0.000   0.000   0.000   0.000   0.000   0.000  -0.000  -0.010   0.000  -0.000
  0.000   0.000   0.000   0.000   0.000   0.000   0.000   0.000   0.000   0.000   0.000   0.000  -0.000  -0.000  -0.010   0.000


------------------------ aborting loop because EDIFF is reached ----------------------------------------


    FORLOC:  cpu time    0.0009: real time    0.0009
    FORNL :  cpu time    0.0929: real time    0.1930
    STRESS:  cpu time    0.2745: real time    0.5238
    FORCOR:  cpu time    0.0101: real time    0.0101
    OFIELD:  cpu time    0.0001: real time    0.0001

  FORCE on cell =-STRESS in cart. coord.  units (eV):
  Direction    XX          YY          ZZ          XY          YZ          ZX
  --------------------------------------------------------------------------------------
  Alpha Z   521.20840   521.20840   521.20840
  Ewald   -2765.86213 -2765.86213 -2765.86213    -0.00000     0.00000    -0.00000
  Hartree  1458.13274  1458.13274  1458.13273    -0.00000    -0.00000    -0.00000
  E(xc)    -450.78769  -450.78769  -450.78769    -0.00000     0.00000     0.00000
  Local     158.33846   158.33846   158.33846     0.00000     0.00000     0.00000
  n-local  -353.69020  -360.09871  -362.28490    -0.10911     2.81120     1.54301
  augment   605.84771   605.84771   605.84771     0.00000     0.00000     0.00000
  Kinetic   803.65264   795.81521   791.01053    -3.22812    -0.05516    -1.32423
  Fock        0.00000     0.00000     0.00000     0.00000     0.00000     0.00000
  -------------------------------------------------------------------------------------
  Total     -34.98765   -34.98765   -34.98765     0.00000    -0.00000    -0.00000
  in kB    -962.66263  -962.66263  -962.66263     0.00000    -0.00000    -0.00000
  external pressure =     -962.66 kB  Pullay stress =        0.00 kB


 VOLUME and BASIS-vectors are now :
 -----------------------------------------------------------------------------
  energy-cutoff  :      300.00
  volume of cell :       58.23
      direct lattice vectors                 reciprocal lattice vectors
     3.876000000  0.000000000  0.000000000     0.257997936  0.000000000  0.000000000
     0.000000000  3.876000000  0.000000000     0.000000000  0.257997936  0.000000000
     0.000000000  0.000000000  3.876000000     0.000000000  0.000000000  0.257997936

  length of vectors
     3.876000000  3.876000000  3.876000000     0.257997936  0.257997936  0.257997936


 FORCES acting on ions:
    Electron-Ion                     Ewald-Force                    Non-Local-Force
 -----------------------------------------------------------------------------------------------
   -.197E-13 0.129E-29 -.124E-13   -.280E-13 -.140E-14 -.207E-13   -.104E-23 0.235E-22 -.780E-23
   0.103E-11 0.110E-11 -.199E-11   0.650E-13 0.394E-13 0.123E-13   -.140E-22 0.732E-23 -.657E-22
   0.103E-11 0.189E-27 0.742E-11   0.192E-13 -.435E-13 0.258E-14   0.164E-23 -.642E-22 -.125E-22
   -.670E-13 0.111E-11 0.111E-11   -.573E-13 0.108E-13 0.231E-14   -.663E-22 -.923E-23 0.550E-23
 -----------------------------------------------------------------------------------------------
   0.198E-11 0.222E-11 0.657E-11   -.110E-14 0.528E-14 -.345E-14   -.797E-22 -.426E-22 -.805E-22
 
 
 POSITION                                       TOTAL-FORCE (eV/Angst)
 -----------------------------------------------------------------------------------
      0.00000      0.00000      0.00000         0.000000      0.000000      0.000000
      1.93800      1.93800      0.00000        -0.000000     -0.000000      0.000000
      1.93800      0.00000      1.93800        -0.000000     -0.000000     -0.000000
      0.00000      1.93800      1.93800         0.000000      0.000000     -0.000000
 -----------------------------------------------------------------------------------
    total drift:                                0.000000      0.000000      0.000000


--------------------------------------------------------------------------------------------------------



  FREE ENERGIE OF THE ION-ELECTRON SYSTEM (eV)
  ---------------------------------------------------
  free  energy   TOTEN  =       -14.36949144 eV

  energy  without entropy=      -14.36091543  energy(sigma->0) =      -14.36663277
 


--------------------------------------------------------------------------------------------------------


    POTLOK:  cpu time    0.0139: real time    0.0649


--------------------------------------------------------------------------------------------------------




--------------------------------------------------------------------------------------------------------


    WAVPRE:  cpu time    0.0299: real time    0.0316
    FEWALD:  cpu time    0.0002: real time    0.0002
    GENKIN:  cpu time    0.0006: real time    0.0006
    ORTHCH:  cpu time    0.1240: real time    0.2720
    CHARGE:  cpu time    0.0130: real time    0.0130
     LOOP+:  cpu time    3.6671: real time    7.3283


[...]
     13       1.9376      2.00000
     14       1.9655      2.00000
     15       2.1747      2.00000
     16       3.2175      2.00000
     17       3.8731      2.00000
     18       3.9777      2.00000
     19       4.1890      2.00000
     20       4.2114      2.00000
     21       4.7552      2.00000
     22       4.9002      2.00000
     23       5.1466      2.00000
     24       5.2973      2.00000
     25       5.3631      2.00000
     26       5.4202      2.00000
     27       5.6530      2.00000
     28       5.7155      2.00000
     29       5.8787      2.00000
     30       6.1323      2.00000
     31       6.2772      2.00000
     32      12.3877     -0.00000
     33      12.5739     -0.00000
     34      14.4281      0.00000
     35      14.6841      0.00000
     36      17.0547      0.00000
     37      17.0969      0.00000

 k-point     4 :       0.2500    0.2500    0.0833
  band No.  band energies     occupation 
      1     -62.1722      2.00000
      2     -62.1638      2.00000
      3     -62.1547      2.00000
      4     -62.1451      2.00000
      5     -62.1355      2.00000
      6     -62.1306      2.00000
      7     -62.1215      2.00000
      8     -62.1125      2.00000
      9     -62.1088      2.00000
     10      -1.0617      2.00000
     11       1.1679      2.00000
     12       1.3964      2.00000
     13       1.8454      2.00000
     14       1.8722      2.00000
     15       2.0429      2.00000
     16       3.0173      2.00000
     17       3.9296      2.00000
     18       4.3015      2.00000
     19       4.6194      2.00000
     20       4.6229      2.00000
     21       4.6886      2.00000
     22       4.6915      2.00000
     23       5.0619      2.00000
     24       5.4646      2.00000
     25       5.4942      2.00000
     26       5.5651      2.00000
     27       5.5897      2.00000
     28       6.0000      2.00000
     29       6.0445      2.00000
     30       6.0654      2.00000
     31       8.0792     -0.07089
     32       8.3476     -0.00164
     33      11.7106     -0.00000
     34      13.9493      0.00000
     35      16.8572      0.00000
     36      17.6873      0.00000
     37      17.7102      0.00000

 k-point     5 :       0.4167    0.2500    0.0833
  band No.  band energies     occupation 
      1     -62.1686      2.00000
      2     -62.1606      2.00000
      3     -62.1573      2.00000
      4     -62.1495      2.00000
      5     -62.1415      2.00000
      6     -62.1289      2.00000
      7     -62.1215      2.00000
      8     -62.1137      2.00000
      9     -62.1043      2.00000
     10       0.0011      2.00000
     11       1.0664      2.00000
     12       1.6476      2.00000
     13       1.8780      2.00000
     14       2.0447      2.00000
     15       2.4372      2.00000
     16       3.1510      2.00000
     17       3.8242      2.00000
     18       3.9854      2.00000
     19       4.0420      2.00000
     20       4.2643      2.00000
     21       4.4996      2.00000
     22       4.8186      2.00000
     23       5.0191      2.00000
     24       5.2155      2.00000
     25       5.3253      2.00000
     26       5.3411      2.00000
     27       5.6833      2.00000
     28       5.9152      2.00000
     29       5.9383      2.00000
     30       5.9486      2.00000
     31       6.5699      2.00000
     32       9.7021     -0.00000
     33      11.5083     -0.00000
     34      13.5350      0.00000
     35      15.4207      0.00000
     36      17.5785      0.00000
     37      19.0085      0.00000

 k-point     6 :       0.4167    0.4167    0.0833
  band No.  band energies     occupation 
      1     -62.1677      2.00000
      2     -62.1608      2.00000
      3     -62.1476      2.00000
      4     -62.1467      2.00000
      5     -62.1367      2.00000
      6     -62.1366      2.00000
      7     -62.1232      2.00000
      8     -62.1136      2.00000
      9     -62.1002      2.00000
     10       0.6685      2.00000
     11       1.1243      2.00000
     12       1.8339      2.00000
     13       1.9422      2.00000
     14       2.4471      2.00000
     15       2.7234      2.00000
     16       3.1418      2.00000
     17       3.6836      2.00000
     18       4.0231      2.00000
     19       4.0730      2.00000
     20       4.2216      2.00000
     21       4.3834      2.00000
     22       4.4533      2.00000
     23       4.9649      2.00000
     24       5.0780      2.00000
     25       5.1366      2.00000
     26       5.2955      2.00000
     27       5.5556      2.00000
     28       5.5765      2.00000
     29       5.6992      2.00000
     30       6.5251      2.00000
     31       7.3940      2.00827
     32       7.8745      0.65142
     33       9.3089     -0.00000
     34      14.9826      0.00000
     35      16.6952      0.00000
     36      17.0216      0.00000
     37      18.2017      0.00000

 k-point     7 :       0.2500    0.2500    0.2500
  band No.  band energies     occupation 
      1     -62.1741      2.00000
      2     -62.1591      2.00000
      3     -62.1591      2.00000
      4     -62.1366      2.00000
      5     -62.1366      2.00000
      6     -62.1317      2.00000
      7     -62.1310      2.00000
      8     -62.1115      2.00000
      9     -62.1115      2.00000
     10      -0.5089      2.00000
     11       1.3358      2.00000
     12       1.3358      2.00000
     13       2.0095      2.00000
     14       2.0095      2.00000
     15       2.2272      2.00000
     16       2.9941      2.00000
     17       3.8409      2.00000
     18       4.4264      2.00000
     19       4.4900      2.00000
     20       4.4900      2.00000
     21       4.5841      2.00000
     22       4.5841      2.00000
     23       5.0298      2.00000
     24       5.0298      2.00000
     25       5.2562      2.00000
     26       5.4907      2.00000
     27       5.4907      2.00000
     28       6.0864      2.00000
     29       6.1818      2.00000
     30       6.1818      2.00000
     31       8.9422     -0.00000
     32       8.9422     -0.00000
     33       8.9791     -0.00000
     34      14.3682      0.00000
     35      15.0643      0.00000
     36      15.0643      0.00000
     37      20.6473      0.00000

 k-point     8 :       0.4167    0.2500    0.2500
  band No.  band energies     occupation 
      1     -62.1728      2.00000
      2     -62.1594      2.00000
      3     -62.1587      2.00000
      4     -62.1397      2.00000
      5     -62.1356      2.00000
      6     -62.1242      2.00000
      7     -62.1095      2.00000
      8     -62.1045      2.00000
      9     -62.0991      2.00000
     10       0.3560      2.00000
     11       1.1025      2.00000
     12       1.3211      2.00000
     13       2.0485      2.00000
     14       2.0662      2.00000
     15       2.7772      2.00000
     16       3.1985      2.00000
     17       3.9340      2.00000
     18       4.0886      2.00000
     19       4.2585      2.00000
     20       4.4993      2.00000
     21       4.5700      2.00000
     22       4.6046      2.00000
     23       4.8085      2.00000
     24       4.8491      2.00000
     25       5.0813      2.00000
     26       5.6777      2.00000
     27       5.8158      2.00000
     28       6.0171      2.00000
     29       6.0715      2.00000
     30       6.0805      2.00000
     31       6.7549      2.00000
     32       9.8625     -0.00000
     33      10.0401     -0.00000
     34      12.4059     -0.00000
     35      13.1799     -0.00000
     36      16.3729      0.00000
     37      18.3161      0.00000

 k-point     9 :       0.4167    0.4167    0.2500
  band No.  band energies     occupation 
      1     -62.1794      2.00000
      2     -62.1692      2.00000
      3     -62.1623      2.00000
      4     -62.1615      2.00000
      5     -62.1257      2.00000
      6     -62.1184      2.00000
      7     -62.1113      2.00000
      8     -62.1085      2.00000
      9     -62.0977      2.00000
     10       0.6759      2.00000
     11       1.0294      2.00000
     12       1.1543      2.00000
     13       1.8764      2.00000
     14       2.4982      2.00000
     15       2.9586      2.00000
     16       3.7410      2.00000
     17       4.1875      2.00000
     18       4.2586      2.00000
     19       4.4156      2.00000
     20       4.4635      2.00000
     21       4.5559      2.00000
     22       4.6717      2.00000
     23       4.7418      2.00000
     24       4.7508      2.00000
     25       4.8519      2.00000
     26       5.6777      2.00000
     27       5.9346      2.00000
     28       5.9667      2.00000
     29       5.9696      2.00000
     30       6.3195      2.00000
     31       7.4013      2.00943
     32       7.7860      1.38062
     33       8.9534     -0.00000
     34      12.5079     -0.00000
     35      13.8492      0.00000
     36      14.4377      0.00000
     37      15.9814      0.00000

 k-point    10 :       0.4167    0.4167    0.4167
  band No.  band energies     occupation 
      1     -62.1887      2.00000
      2     -62.1703      2.00000
      3     -62.1703      2.00000
      4     -62.1691      2.00000
      5     -62.1143      2.00000
      6     -62.1121      2.00000
      7     -62.1121      2.00000
      8     -62.1000      2.00000
      9     -62.1000      2.00000
     10       0.6641      2.00000
     11       0.7699      2.00000
     12       0.7699      2.00000
     13       1.9222      2.00000
     14       2.8540      2.00000
     15       2.8540      2.00000
     16       4.1385      2.00000
     17       4.3451      2.00000
     18       4.3451      2.00000
     19       4.5416      2.00000
     20       4.5416      2.00000
     21       4.6579      2.00000
     22       5.1314      2.00000
     23       5.2409      2.00000
     24       5.2409      2.00000
     25       5.4635      2.00000
     26       5.9882      2.00000
     27       5.9882      2.00000
     28       6.0505      2.00000
     29       6.1377      2.00000
     30       6.1377      2.00000
     31       7.4282      2.01499
     32       7.4282      2.01499
     33       7.4950      2.03836
     34      11.4140     -0.00000
     35      12.8367     -0.00000
     36      12.8367     -0.00000
     37      13.8896      0.00000


--------------------------------------------------------------------------------------------------------


 soft charge-density along one line, spin component           1
         0         1         2         3         4         5         6         7         8         9
 total charge-density along one line
 
 pseudopotential strength for first ion, spin component:           1
 -9.238   0.000   0.000   0.000   0.000  -0.182  -0.000  -0.000
  0.000  -9.238   0.000  -0.000   0.000  -0.000  -0.182  -0.000
  0.000   0.000  -9.214   0.000   0.000  -0.000  -0.000  -0.185
  0.000  -0.000   0.000  -9.238   0.000  -0.000   0.000  -0.000
  0.000   0.000   0.000   0.000  -9.214  -0.000  -0.000  -0.000
 -0.182  -0.000  -0.000  -0.000  -0.000   0.295   0.000   0.000
 -0.000  -0.182  -0.000   0.000  -0.000   0.000   0.295   0.000
 -0.000  -0.000  -0.185  -0.000  -0.000   0.000   0.000   0.295
 -0.000   0.000  -0.000  -0.182  -0.000  -0.000  -0.000   0.000
 -0.000  -0.000  -0.000  -0.000  -0.185   0.000   0.000   0.000
  0.000   0.000   0.000  -0.000   0.000   0.000   0.000  -0.000
 -0.000  -0.000  -0.000   0.000  -0.000   0.000   0.000   0.000
  0.000   0.000  -0.000  -0.000  -0.000  -0.000  -0.000   0.000
 -0.000   0.000   0.000   0.000   0.000   0.000  -0.000  -0.000
  0.000  -0.000  -0.000   0.000   0.000  -0.000   0.000   0.000
 -0.000  -0.000   0.000   0.000   0.000   0.000   0.000  -0.000
  0.000  -0.000  -0.000  -0.000  -0.000  -0.000   0.000   0.000
 -0.000   0.000   0.000  -0.000  -0.000   0.000  -0.000  -0.000
 total augmentation occupancy for first ion, spin component:           1
  1.881   0.000  -0.000   0.000  -0.000   0.045  -0.000  -0.000  -0.000   0.000   0.000   0.000   0.000   0.000   0.000   0.000
 -0.000   1.881   0.000  -0.000  -0.000   0.000   0.045   0.000  -0.000  -0.000  -0.000  -0.000   0.000   0.000   0.000   0.000
  0.000   0.000   1.937  -0.000  -0.000  -0.000  -0.000  -0.063   0.000  -0.000   0.000  -0.000   0.000   0.000   0.000   0.000
  0.000   0.000  -0.000   1.881   0.000   0.000   0.000   0.000   0.045   0.000   0.000   0.000   0.000   0.000   0.000   0.000
 -0.000  -0.000  -0.000  -0.000   1.937   0.000  -0.000  -0.000  -0.000  -0.063   0.000   0.000   0.000   0.000   0.000   0.000
  0.045   0.000   0.000  -0.000  -0.000   0.259  -0.000  -0.000  -0.000  -0.000   0.000   0.000   0.000   0.000   0.000   0.000
 -0.000   0.045  -0.000   0.000   0.000   0.000   0.259   0.000   0.000  -0.000  -0.000  -0.000   0.000   0.000   0.000   0.000
  0.000   0.000  -0.063   0.000   0.000  -0.000   0.000   0.264  -0.000  -0.000  -0.000   0.000   0.000   0.000   0.000   0.000
  0.000   0.000  -0.000   0.045  -0.000   0.000  -0.000  -0.000   0.259   0.000   0.000  -0.000   0.000   0.000   0.000   0.000
 -0.000  -0.000   0.000   0.000  -0.063  -0.000  -0.000  -0.000   0.000   0.264   0.000  -0.000   0.000   0.000   0.000   0.000
  0.000  -0.000   0.000  -0.000   0.000   0.000  -0.000  -0.000  -0.000   0.000   1.403  -0.418   0.000   0.000   0.000   0.000
  0.000   0.000  -0.000   0.000   0.000   0.000  -0.000   0.000  -0.000   0.000  -0.418   0.267   0.000   0.000   0.000   0.000
  0.000   0.000   0.000   0.000   0.000   0.000   0.000   0.000   0.000   0.000   0.000   0.000   0.271   0.000   0.000  -0.014
  0.000   0.000   0.000   0.000   0.000   0.000   0.000   0.000   0.000   0.000   0.000   0.000   0.000   0.271  -0.000   0.000
  0.000   0.000   0.000   0.000   0.000   0.000   0.000   0.000   0.000   0.000   0.000   0.000  -0.000  -0.000   0.271   0.000
  0.000   0.000   0.000   0.000   0.000   0.000   0.000   0.000   0.000   0.000   0.000   0.000  -0.014  -0.000  -0.000   0.001
  0.000   0.000   0.000   0.000   0.000   0.000   0.000   0.000   0.000   0.000   0.000   0.000   0.000  -0.014   0.000   0.000
  0.000   0.000   0.000   0.000   0.000   0.000   0.000   0.000   0.000   0.000   0.000   0.000   0.000  -0.000  -0.014   0.000


------------------------ aborting loop because EDIFF is reached ----------------------------------------


    FORLOC:  cpu time    0.0009: real time    0.0009
    FORNL :  cpu time    0.1070: real time    0.2561
    STRESS:  cpu time    0.3195: real time    0.6197
    FORCOR:  cpu time    0.0099: real time    0.0099
    OFIELD:  cpu time    0.0001: real time    0.0001

  FORCE on cell =-STRESS in cart. coord.  units (eV):
  Direction    XX          YY          ZZ          XY          YZ          ZX
  --------------------------------------------------------------------------------------
  Alpha Z   636.70036   636.70036   636.70036
  Ewald   -2956.68522 -2956.68522 -2956.68522    -0.00000     0.00000     0.00000
  Hartree  1341.17702  1341.17702  1341.17701    -0.00000    -0.00000    -0.00000
  E(xc)    -452.45266  -452.45266  -452.45266    -0.00000    -0.00000     0.00000
  Local     351.06503   351.06503   351.06503    -0.00000    -0.00000    -0.00000
  n-local  -308.98752  -317.43939  -320.45786     0.48337     2.81366     1.43950
  augment   605.38231   605.38231   605.38231     0.00000     0.00000     0.00000
  Kinetic   797.57518   789.48952   784.34583    -3.21692    -0.83681    -1.97742
  Fock        0.00000     0.00000     0.00000     0.00000     0.00000     0.00000
  -------------------------------------------------------------------------------------
  Total       0.02875     0.02875     0.02875     0.00000     0.00000    -0.00000
  in kB       0.96640     0.96640     0.96640     0.00000     0.00000    -0.00000
  external pressure =        0.97 kB  Pullay stress =        0.00 kB


 VOLUME and BASIS-vectors are now :
 -----------------------------------------------------------------------------
  energy-cutoff  :      300.00
  volume of cell :       47.67
      direct lattice vectors                 reciprocal lattice vectors
     3.625844764  0.000000000 -0.000000000     0.275797797  0.000000000 -0.000000000
     0.000000000  3.625844764  0.000000000    -0.000000000  0.275797797  0.000000000
     0.000000000 -0.000000000  3.625844764     0.000000000  0.000000000  0.275797797

  length of vectors
     3.625844764  3.625844764  3.625844764     0.275797797  0.275797797  0.275797797


 FORCES acting on ions:
    Electron-Ion                     Ewald-Force                    Non-Local-Force
 -----------------------------------------------------------------------------------------------
   -.292E-13 0.632E-29 -.668E-18   -.737E-14 -.225E-13 0.137E-14   -.783E-23 0.357E-23 -.932E-23
   0.904E-12 0.102E-11 -.205E-11   0.184E-13 -.320E-13 -.124E-13   -.760E-24 -.171E-23 -.329E-23
   0.905E-12 0.262E-27 0.697E-11   0.176E-13 0.173E-13 0.379E-14   -.121E-22 -.143E-23 0.273E-22
   -.716E-13 0.102E-11 0.111E-11   -.269E-13 0.219E-13 0.447E-14   -.376E-23 0.293E-24 -.322E-22
 -----------------------------------------------------------------------------------------------
   0.171E-11 0.205E-11 0.607E-11   0.167E-14 -.153E-13 -.279E-14   -.245E-22 0.720E-24 -.175E-22
 
 
 POSITION                                       TOTAL-FORCE (eV/Angst)
 -----------------------------------------------------------------------------------
     -0.00000     -0.00000     -0.00000        -0.000000     -0.000000     -0.000000
      1.81292      1.81292     -0.00000         0.000000      0.000000      0.000000
      1.81292      0.00000      1.81292         0.000000      0.000000     -0.000000
      0.00000      1.81292      1.81292         0.000000     -0.000000      0.000000
 -----------------------------------------------------------------------------------
    total drift:                                0.000000      0.000000      0.000000


--------------------------------------------------------------------------------------------------------



  FREE ENERGIE OF THE ION-ELECTRON SYSTEM (eV)
  ---------------------------------------------------
  free  energy   TOTEN  =       -17.61325096 eV

  energy  without entropy=      -17.60740898  energy(sigma->0) =      -17.61130363
 
 d Force = 0.0000000E+00[ 0.000E+00, 0.000E+00]  d Energy = 0.5936678E-04-0.594E-04
 d Force = 0.0000000E+00[ 0.000E+00, 0.000E+00]  d Ewald  = 0.2770631E+01-0.277E+01


--------------------------------------------------------------------------------------------------------


    POTLOK:  cpu time    0.0132: real time    0.0132


--------------------------------------------------------------------------------------------------------




--------------------------------------------------------------------------------------------------------


  
 reached required accuracy - stopping structural energy minimisation
     LOOP+:  cpu time    1.3585: real time    2.7609
    4ORBIT:  cpu time    0.0000: real time    0.0000

 total amount of memory used by VASP MPI-rank0    51745. kBytes
=======================================================================

   base      :      30000. kBytes
   nonlr-proj:       4651. kBytes
   fftplans  :       1184. kBytes
   grid      :       2084. kBytes
   one-center:         62. kBytes
   wavefun   :      13764. kBytes
 
  
  
 General timing and accounting informations for this job:
 ========================================================
  
                  Total CPU time used (sec):       29.670
                            User time (sec):       29.378
                          System time (sec):        0.291
                         Elapsed time (sec):       59.650
  
                   Maximum memory used (kb):      323308.
                   Average memory used (kb):           0.
  
                          Minor page faults:        51463
                          Major page faults:          133
                 Voluntary context switches:         2815
