<?xml version="1.0" encoding="ISO-8859-1"?>
<modeling>
 <generator>
  <i name="program" type="string">vasp </i>
  <i name="version" type="string">5.4.4.18Apr17-6-g9f103f2a35  </i>
  <i name="subversion" type="string">(build Oct  7 2025 21:22:07) complex            parallel </i>
  <i name="platform" type="string">LinuxIFC </i>
  <i name="date" type="string">2025 11 06 </i>
  <i name="time" type="string">16:02:17 </i>
 </generator>
 <incar>
  <i type="string" name="PREC">normal</i>
  <i type="string" name="ALGO"> All</i>
  <i name="AMIX">      0.02000000</i>
  <i name="BMIX">      0.00010000</i>
  <i type="int" name="NELM">    80</i>
  <i type="int" name="IBRION">     2</i>
  <i name="EDIFF">      0.00001000</i>
  <i name="EDIFFG">     -0.03000000</i>
  <i type="int" name="NSW">    40</i>
  <i type="int" name="ISIF">     3</i>
  <i type="int" name="ISYM">     2</i>
  <i name="ENCUT">    300.00000000</i>
  <i type="string" name="LREAL"> Auto</i>
  <i type="int" name="ISMEAR">     1</i>
  <i name="SIGMA">      0.20000000</i>
  <i type="logical" name="LWAVE"> F  </i>
  <i type="logical" name="LCHARG"> T  </i>
  <v type="int" name="KPOINT_BSE">    -1     0     0     0</v>
  <i type="int" name="NELM">    80</i>
 </incar>
 <structure name="primitive_cell" >
  <crystal>
   <varray name="basis" >
    <v>       3.87600000       0.00000000       0.00000000 </v>
    <v>       0.00000000       3.87600000       0.00000000 </v>
    <v>       0.00000000       0.00000000       3.87600000 </v>
   </varray>
   <i name="volume">     58.23060538 </i>
   <varray name="rec_basis" >
    <v>       0.25799794       0.00000000       0.00000000 </v>
    <v>       0.00000000       0.25799794       0.00000000 </v>
    <v>       0.00000000       0.00000000       0.25799794 </v>
   </varray>
  </crystal>
  <varray name="positions" >
   <v>       0.00000000       0.00000000       0.00000000 </v>
   <v>      -0.50000000      -0.50000000       0.00000000 </v>
   <v>      -0.50000000       0.00000000      -0.50000000 </v>
   <v>       0.00000000      -0.50000000      -0.50000000 </v>
  </varray>
 </structure>
 <varray name="primitive_index" >
  <v type="int" >        1 </v>
  <v type="int" >        2 </v>
  <v type="int" >        3 </v>
  <v type="int" >        4 </v>
 </varray>
 <kpoints>
  <generation param="Monkhorst-Pack">
   <v type="int" name="divisions">       6        6        6 </v>
   <v name="usershift">      0.00000000       0.00000000       0.00000000 </v>
   <v name="genvec1">      0.16666667       0.00000000       0.00000000 </v>
   <v name="genvec2">      0.00000000       0.16666667       0.00000000 </v>
   <v name="genvec3">      0.00000000       0.00000000       0.16666667 </v>
   <v name="shift">      0.50000000       0.50000000       0.50000000 </v>
  </generation>
  <varray name="kpointlist" >
   <v>       0.08333333       0.08333333       0.08333333 </v>
   <v>       0.25000000       0.08333333       0.08333333 </v>
   <v>       0.41666667       0.08333333       0.08333333 </v>
   <v>       0.25000000       0.25000000       0.08333333 </v>
   <v>       0.41666667       0.25000000       0.08333333 </v>
   <v>       0.41666667       0.41666667       0.08333333 </v>
   <v>       0.25000000       0.25000000       0.25000000 </v>
   <v>       0.41666667       0.25000000       0.25000000 </v>
   <v>       0.41666667       0.41666667       0.25000000 </v>
   <v>       0.41666667       0.41666667       0.41666667 </v>
  </varray>
  <varray name="weights" >
   <v>       0.03703704 </v>
   <v>       0.11111111 </v>
   <v>       0.11111111 </v>
   <v>       0.11111111 </v>
   <v>       0.22222222 </v>
   <v>       0.11111111 </v>
   <v>       0.03703704 </v>
   <v>       0.11111111 </v>
   <v>       0.11111111 </v>
   <v>       0.03703704 </v>
  </varray>
 </kpoints>
 <parameters>
  <separator name="general" >
   <i type="string" name="SYSTEM">unknown system</i>
   <i type="logical" name="LCOMPAT"> F  </i>
  </separator>
  <separator name="electronic" >
   <i type="string" name="PREC">normal</i>
   <i name="ENMAX">    300.00000000</i>
   <i name="ENAUG">    758.23300000</i>
   <i name="EDIFF">      0.00001000</i>
   <i type="int" name="IALGO">    58</i>
   <i type="int" name="IWAVPR">    11</i>
   <i type="int" name="NBANDS">    37</i>
   <i name="NELECT">     62.00000000</i>
   <i type="int" name="TURBO">     0</i>
   <i type="int" name="IRESTART">     0</i>
   <i type="int" name="NREBOOT">     0</i>
   <i type="int" name="NMIN">     0</i>
   <i name="EREF">      0.00000000</i>
   <separator name="electronic smearing" >
    <i type="int" name="ISMEAR">     1</i>
    <i name="SIGMA">      0.20000000</i>
    <i name="KSPACING">      0.50000000</i>
    <i type="logical" name="KGAMMA"> T  </i>
   </separator>
   <separator name="electronic projectors" >
    <i type="logical" name="LREAL"> T  </i>
    <v name="ROPT">     -0.00050000     -0.00050000</v>
    <i type="int" name="LMAXPAW">  -100</i>
    <i type="int" name="LMAXMIX">     2</i>
    <i type="logical" name="NLSPLINE"> F  </i>
   </separator>
   <separator name="electronic startup" >
    <i type="int" name="ISTART">     0</i>
    <i type="int" name="ICHARG">     2</i>
    <i type="int" name="INIWAV">     1</i>
   </separator>
   <separator name="electronic spin" >
    <i type="int" name="ISPIN">     1</i>
    <i type="logical" name="LNONCOLLINEAR"> F  </i>
    <v name="MAGMOM">      1.00000000      1.00000000      1.00000000      1.00000000</v>
    <i name="NUPDOWN">     -1.00000000</i>
    <i type="logical" name="LSORBIT"> F  </i>
    <v name="SAXIS">      0.00000000      0.00000000      1.00000000</v>
    <i type="logical" name="LSPIRAL"> F  </i>
    <v name="QSPIRAL">      0.00000000      0.00000000      0.00000000</v>
    <i type="logical" name="LZEROZ"> F  </i>
   </separator>
   <separator name="electronic exchange-correlation" >
    <i type="logical" name="LASPH"> F  </i>
    <i type="logical" name="LMETAGGA"> F  </i>
   </separator>
   <separator name="electronic convergence" >
    <i type="int" name="NELM">    80</i>
    <i type="int" name="NELMDL">    -5</i>
    <i type="int" name="NELMIN">     2</i>
    <i name="ENINI">    300.00000000</i>
    <separator name="electronic convergence detail" >
     <i type="logical" name="LDIAG"> T  </i>
     <i type="logical" name="LSUBROT"> F  </i>
     <i name="WEIMIN">      0.00100000</i>
     <i name="EBREAK">      0.00000007</i>
     <i name="DEPER">      0.30000000</i>
     <i type="int" name="NRMM">     4</i>
     <i name="TIME">      0.40000000</i>
    </separator>
   </separator>
   <separator name="electronic mixer" >
    <i name="AMIX">      0.02000000</i>
    <i name="BMIX">      0.00010000</i>
    <i name="AMIN">      0.02000000</i>
    <i name="AMIX_MAG">      0.08000000</i>
    <i name="BMIX_MAG">      0.00010000</i>
    <separator name="electronic mixer details" >
     <i type="int" name="IMIX">     4</i>
     <i type="logical" name="MIXFIRST"> F  </i>
     <i type="int" name="MAXMIX">   -45</i>
     <i name="WC">    100.00000000</i>
     <i type="int" name="INIMIX">     1</i>
     <i type="int" name="MIXPRE">     1</i>
     <i type="int" name="MREMOVE">     5</i>
    </separator>
   </separator>
   <separator name="electronic dipolcorrection" >
    <i type="logical" name="LDIPOL"> F  </i>
    <i type="logical" name="LMONO"> F  </i>
    <i type="int" name="IDIPOL">     0</i>
    <i name="EPSILON">      1.00000000</i>
    <v name="DIPOL">   -100.00000000   -100.00000000   -100.00000000</v>
    <i name="EFIELD">      0.00000000</i>
   </separator>
  </separator>
  <separator name="grids" >
   <i type="int" name="NGX">    16</i>
   <i type="int" name="NGY">    16</i>
   <i type="int" name="NGZ">    16</i>
   <i type="int" name="NGXF">    32</i>
   <i type="int" name="NGYF">    32</i>
   <i type="int" name="NGZF">    32</i>
   <i type="logical" name="ADDGRID"> F  </i>
  </separator>
  <separator name="ionic" >
   <i type="int" name="NSW">    40</i>
   <i type="int" name="IBRION">     2</i>
   <i type="int" name="MDALGO">     0</i>
   <i type="int" name="ISIF">     3</i>
   <i name="PSTRESS">      0.00000000</i>
   <i name="EDIFFG">     -0.03000000</i>
   <i type="int" name="NFREE">     1</i>
   <i name="POTIM">      0.50000000</i>
   <i name="SMASS">     -3.00000000</i>
   <i name="SCALEE">      1.00000000</i>
  </separator>
  <separator name="ionic md" >
   <i name="TEBEG">      0.00010000</i>
   <i name="TEEND">      0.00010000</i>
   <i type="int" name="NBLOCK">     1</i>
   <i type="int" name="KBLOCK">    40</i>
   <i type="int" name="NPACO">   256</i>
   <i name="APACO">     16.00000000</i>
  </separator>
  <separator name="symmetry" >
   <i type="int" name="ISYM">     2</i>
   <i name="SYMPREC">      0.00001000</i>
  </separator>
  <separator name="dos" >
   <i type="int" name="LORBIT">     0</i>
   <v name="RWIGS">     -1.00000000     -1.00000000</v>
   <i type="int" name="NEDOS">   301</i>
   <i name="EMIN">     10.00000000</i>
   <i name="EMAX">    -10.00000000</i>
   <i name="EFERMI">      0.00000000</i>
  </separator>
  <separator name="writing" >
   <i type="int" name="NWRITE">     2</i>
   <i type="logical" name="LWAVE"> F  </i>
   <i type="logical" name="LDOWNSAMPLE"> F  </i>
   <i type="logical" name="LCHARG"> T  </i>
   <i type="logical" name="LPARD"> F  </i>
   <i type="logical" name="LVTOT"> F  </i>
   <i type="logical" name="LVHAR"> F  </i>
   <i type="logical" name="LELF"> F  </i>
   <i type="logical" name="LOPTICS"> F  </i>
   <v name="STM">      0.00000000      0.00000000      0.00000000      0.00000000      0.00000000      0.00000000      0.00000000</v>
  </separator>
  <separator name="performance" >
   <i type="int" name="NPAR">     1</i>
   <i type="int" name="NSIM">     4</i>
   <i type="int" name="NBLK">    -1</i>
   <i type="logical" name="LPLANE"> T  </i>
   <i type="logical" name="LSCALAPACK"> T  </i>
   <i type="logical" name="LSCAAWARE"> F  </i>
   <i type="logical" name="LSCALU"> F  </i>
   <i type="logical" name="LASYNC"> F  </i>
   <i type="logical" name="LORBITALREAL"> F  </i>
  </separator>
  <separator name="miscellaneous" >
   <i type="int" name="IDIOT">     3</i>
   <i type="int" name="ISPECIAL">     0</i>
   <i type="logical" name="LMUSIC"> F  </i>
   <v name="POMASS">    196.96600000     63.54600000</v>
   <v name="DARWINR">      0.00000000      0.00000000</v>
   <v name="DARWINV">      1.00000000      1.00000000</v>
   <i type="logical" name="LCORR"> T  </i>
  </separator>
  <i type="logical" name="GGA_COMPAT"> T  </i>
  <i type="logical" name="LBERRY"> F  </i>
  <i type="int" name="ICORELEVEL">     0</i>
  <i type="logical" name="LDAU"> F  </i>
  <i type="int" name="I_CONSTRAINED_M">     0</i>
  <separator name="electronic exchange-correlation" >
   <i type="string" name="GGA">--</i>
   <i type="int" name="VOSKOWN">     0</i>
   <i type="logical" name="LHFCALC"> F  </i>
   <i type="string" name="PRECFOCK"></i>
   <i type="logical" name="LSYMGRAD"> F  </i>
   <i type="logical" name="LHFONE"> F  </i>
   <i type="logical" name="LRHFCALC"> F  </i>
   <i type="logical" name="LTHOMAS"> F  </i>
   <i type="logical" name="LMODELHF"> F  </i>
   <i name="ENCUT4O">     -1.00000000</i>
   <i type="int" name="EXXOEP">     0</i>
   <i type="int" name="FOURORBIT">     0</i>
   <i name="AEXX">      0.00000000</i>
   <i name="HFALPHA">      0.00000000</i>
   <i name="MCALPHA">      0.00000000</i>
   <i name="ALDAX">      1.00000000</i>
   <i name="AGGAX">      1.00000000</i>
   <i name="ALDAC">      1.00000000</i>
   <i name="AGGAC">      1.00000000</i>
   <i type="int" name="NKREDX">     1</i>
   <i type="int" name="NKREDY">     1</i>
   <i type="int" name="NKREDZ">     1</i>
   <i type="logical" name="SHIFTRED"> F  </i>
   <i type="logical" name="ODDONLY"> F  </i>
   <i type="logical" name="EVENONLY"> F  </i>
   <i type="int" name="LMAXFOCK">     0</i>
   <i type="int" name="NMAXFOCKAE">     0</i>
   <i type="logical" name="LFOCKAEDFT"> F  </i>
   <i name="HFSCREEN">      0.00000000</i>
   <i name="HFSCREENC">      0.00000000</i>
   <i type="int" name="NBANDSGWLOW">     0</i>
  </separator>
  <separator name="vdW DFT" >
   <i type="logical" name="LUSE_VDW"> F  </i>
   <i name="Zab_VDW">     -0.84910000</i>
   <i name="PARAM1">      0.12340000</i>
   <i name="PARAM2">      1.00000000</i>
   <i name="PARAM3">      0.00000000</i>
  </separator>
  <separator name="model GW" >
   <i type="int" name="MODEL_GW">     0</i>
   <i name="MODEL_EPS0">      8.73459081</i>
   <i name="MODEL_ALPHA">      1.00000000</i>
  </separator>
  <separator name="linear response parameters" >
   <i type="logical" name="LEPSILON"> F  </i>
   <i type="logical" name="LRPA"> F  </i>
   <i type="logical" name="LNABLA"> F  </i>
   <i type="logical" name="LVEL"> F  </i>
   <i type="int" name="KINTER">     0</i>
   <i name="CSHIFT">      0.10000000</i>
   <i name="OMEGAMAX">     -1.00000000</i>
   <i name="DEG_THRESHOLD">      0.00200000</i>
   <i name="RTIME">     -0.10000000</i>
   <i name="WPLASMAI">      0.00000000</i>
   <v name="DFIELD">      0.00000000      0.00000000      0.00000000</v>
   <v name="WPLASMA">      0.00000000      0.00000000      0.00000000      0.00000000      0.00000000      0.00000000      0.00000000      0.00000000      0.00000000</v>
  </separator>
  <separator name="orbital magnetization" >
   <i type="logical" name="NUCIND"> F  </i>
   <v name="MAGPOS">      0.00000000      0.00000000      0.00000000</v>
   <i type="logical" name="LNICSALL"> T  </i>
   <i type="logical" name="ORBITALMAG"> F  </i>
   <i type="logical" name="LMAGBLOCH"> F  </i>
   <i type="logical" name="LCHIMAG"> F  </i>
   <i type="logical" name="LGAUGE"> T  </i>
   <i type="int" name="MAGATOM">     0</i>
   <v name="MAGDIPOL">      0.00000000      0.00000000      0.00000000</v>
   <v name="AVECCONST">      0.00000000      0.00000000      0.00000000</v>
  </separator>
  <separator name="response functions" >
   <i type="logical" name="LADDER"> F  </i>
   <i type="logical" name="LRPAFORCE"> F  </i>
   <i type="logical" name="LFXC"> F  </i>
   <i type="logical" name="LHARTREE"> T  </i>
   <i type="int" name="IBSE">     0</i>
   <v type="int" name="KPOINT">    -1     0     0     0</v>
   <i type="logical" name="LTCTE"> F  </i>
   <i type="logical" name="LTETE"> F  </i>
   <i type="logical" name="LTRIPLET"> F  </i>
   <i type="logical" name="LFXCEPS"> F  </i>
   <i type="logical" name="LFXHEG"> F  </i>
   <i type="int" name="NATURALO">     2</i>
   <i type="logical" name="L2ORDER"> F  </i>
   <i type="logical" name="LMP2LT"> F  </i>
   <i type="logical" name="LUSEW"> F  </i>
   <i name="ENCUTGW">     -2.00000000</i>
   <i name="ENCUTGWSOFT">     -2.00000000</i>
   <i name="ENCUTLF">     -1.00000000</i>
   <i type="int" name="LMAXMP2">    -1</i>
   <i name="SCISSOR">      0.00000000</i>
   <i type="int" name="NOMEGA">     0</i>
   <i type="int" name="NOMEGAR">     0</i>
   <i type="int" name="NBANDSGW">    -1</i>
   <i type="int" name="NBANDSO">    -1</i>
   <i type="int" name="NBANDSV">    -1</i>
   <i type="int" name="NELM">    80</i>
   <i type="int" name="NELMHF">     1</i>
   <i type="int" name="DIM">     3</i>
   <i type="int" name="ANTIRES">     0</i>
   <i name="OMEGAMAX">    -30.00000000</i>
   <i name="OMEGAMIN">    -30.00000000</i>
   <i name="OMEGATL">   -200.00000000</i>
   <i type="int" name="OMEGAGRID">   140</i>
   <i name="CSHIFT">     -0.10000000</i>
   <i type="logical" name="SELFENERGY"> F  </i>
   <i type="logical" name="LSPECTRAL"> F  </i>
   <i type="logical" name="LSPECTRALGW"> F  </i>
   <i type="logical" name="LSINGLES"> F  </i>
   <i type="logical" name="LFERMIGW"> F  </i>
   <i type="logical" name="ODDONLYGW"> F  </i>
   <i type="logical" name="EVENONLYGW"> F  </i>
   <i type="int" name="NKREDLFX">     1</i>
   <i type="int" name="NKREDLFY">     1</i>
   <i type="int" name="NKREDLFZ">     1</i>
   <i type="int" name="MAXMEM">  2800</i>
   <i type="int" name="TELESCOPE">     0</i>
   <i type="int" name="TAUPAR">     1</i>
   <i type="int" name="OMEGAPAR">    -1</i>
   <i name="LAMBDA">      1.00000000</i>
  </separator>
  <separator name="External order field" >
   <i name="OFIELD_KAPPA">      0.00000000</i>
   <v name="OFIELD_K">      0.00000000      0.00000000      0.00000000</v>
   <i name="OFIELD_Q6_NEAR">      0.00000000</i>
   <i name="OFIELD_Q6_FAR">      0.00000000</i>
   <i name="OFIELD_A">      0.00000000</i>
  </separator>
 </parameters>
 <atominfo>
  <atoms>       4 </atoms>
  <types>       2 </types>
  <array name="atoms" >
   <dimension dim="1">ion</dimension>
   <field type="string">element</field>
   <field type="int">atomtype</field>
   <set>
    <rc><c>Au</c><c>   1</c></rc>
    <rc><c>Cu</c><c>   2</c></rc>
    <rc><c>Cu</c><c>   2</c></rc>
    <rc><c>Cu</c><c>   2</c></rc>
   </set>
  </array>
  <array name="atomtypes" >
   <dimension dim="1">type</dimension>
   <field type="int">atomspertype</field>
   <field type="string">element</field>
   <field>mass</field>
   <field>valence</field>
   <field type="string">pseudopotential</field>
   <set>
    <rc><c>   1</c><c>Au</c><c>    196.96600000</c><c>     11.00000000</c><c> PAW_PBE Au 06Sep2000                   </c></rc>
    <rc><c>   3</c><c>Cu</c><c>     63.54600000</c><c>     17.00000000</c><c> PAW_PBE Cu_pv 06Sep2000                </c></rc>
   </set>
  </array>
 </atominfo>
 <structure name="initialpos" >
  <crystal>
   <varray name="basis" >
    <v>       3.87600000       0.00000000       0.00000000 </v>
    <v>       0.00000000       3.87600000       0.00000000 </v>
    <v>       0.00000000       0.00000000       3.87600000 </v>
   </varray>
   <i name="volume">     58.23060538 </i>
   <varray name="rec_basis" >
    <v>       0.25799794       0.00000000       0.00000000 </v>
    <v>       0.00000000       0.25799794       0.00000000 </v>
    <v>       0.00000000       0.00000000       0.25799794 </v>
   </varray>
  </crystal>
  <varray name="positions" >
   <v>       0.00000000       0.00000000       0.00000000 </v>
   <v>       0.50000000       0.50000000       0.00000000 </v>
   <v>       0.50000000       0.00000000       0.50000000 </v>
   <v>       0.00000000       0.50000000       0.50000000 </v>
  </varray>
 </structure>
 <calculation>
  <scstep>
   <time name="total">    0.20    0.40</time>
   <energy>
    <i name="alphaZ">    521.20840448 </i>
    <i name="ewald">  -8297.58284019 </i>
    <i name="hartreedc">  -4490.80799314 </i>
    <i name="XCdc">    338.91921283 </i>
    <i name="pawpsdc">  10439.60561056 </i>
    <i name="pawaedc"> -10863.16027776 </i>
    <i name="eentropy">      0.00131791 </i>
    <i name="bandstr">   -347.14814569 </i>
    <i name="atom">  13280.20280305 </i>
    <i name="e_fr_energy">    581.23809204 </i>
    <i name="e_wo_entrp">    581.23677413 </i>
    <i name="e_0_energy">    581.23765273 </i>
   </energy>
  </scstep>
  <scstep>
   <time name="total">    0.16    0.31</time>
   <energy>
    <i name="e_fr_energy">     13.36423891 </i>
    <i name="e_wo_entrp">     13.36111191 </i>
    <i name="e_0_energy">     13.36319658 </i>
   </energy>
  </scstep>
  <scstep>
   <time name="total">    0.18    0.33</time>
   <energy>
    <i name="e_fr_energy">    -16.44965966 </i>
    <i name="e_wo_entrp">    -16.44763471 </i>
    <i name="e_0_energy">    -16.44898468 </i>
   </energy>
  </scstep>
  <scstep>
   <time name="total">    0.16    0.39</time>
   <energy>
    <i name="e_fr_energy">    -17.23099950 </i>
    <i name="e_wo_entrp">    -17.22724867 </i>
    <i name="e_0_energy">    -17.22974922 </i>
   </energy>
  </scstep>
  <scstep>
   <time name="total">    0.17    0.30</time>
   <energy>
    <i name="e_fr_energy">    -17.24451623 </i>
    <i name="e_wo_entrp">    -17.24075425 </i>
    <i name="e_0_energy">    -17.24326224 </i>
   </energy>
  </scstep>
  <scstep>
   <time name="total">    0.18    0.38</time>
   <energy>
    <i name="e_fr_energy">     -4.07091128 </i>
    <i name="e_wo_entrp">     -4.06933010 </i>
    <i name="e_0_energy">     -4.07038422 </i>
   </energy>
  </scstep>
  <scstep>
   <time name="total">    0.17    0.32</time>
   <energy>
    <i name="e_fr_energy">    -13.04523311 </i>
    <i name="e_wo_entrp">    -13.04471949 </i>
    <i name="e_0_energy">    -13.04506190 </i>
   </energy>
  </scstep>
  <scstep>
   <time name="total">    0.17    0.37</time>
   <energy>
    <i name="e_fr_energy">    -13.83999794 </i>
    <i name="e_wo_entrp">    -13.83579671 </i>
    <i name="e_0_energy">    -13.83859753 </i>
   </energy>
  </scstep>
  <scstep>
   <time name="total">    0.17    0.32</time>
   <energy>
    <i name="e_fr_energy">    -14.12071283 </i>
    <i name="e_wo_entrp">    -14.11181706 </i>
    <i name="e_0_energy">    -14.11774757 </i>
   </energy>
  </scstep>
  <scstep>
   <time name="total">    0.17    0.32</time>
   <energy>
    <i name="e_fr_energy">    -14.32472129 </i>
    <i name="e_wo_entrp">    -14.31593040 </i>
    <i name="e_0_energy">    -14.32179099 </i>
   </energy>
  </scstep>
  <scstep>
   <time name="total">    0.17    0.37</time>
   <energy>
    <i name="e_fr_energy">    -14.35690240 </i>
    <i name="e_wo_entrp">    -14.34840249 </i>
    <i name="e_0_energy">    -14.35406910 </i>
   </energy>
  </scstep>
  <scstep>
   <time name="total">    0.17    0.32</time>
   <energy>
    <i name="e_fr_energy">    -14.36667262 </i>
    <i name="e_wo_entrp">    -14.35824076 </i>
    <i name="e_0_energy">    -14.36386200 </i>
   </energy>
  </scstep>
  <scstep>
   <time name="total">    0.17    0.32</time>
   <energy>
    <i name="e_fr_energy">    -14.36880187 </i>
    <i name="e_wo_entrp">    -14.36033989 </i>
    <i name="e_0_energy">    -14.36598121 </i>
   </energy>
  </scstep>
  <scstep>
   <time name="total">    0.17    0.37</time>
   <energy>
    <i name="e_fr_energy">    -14.36930727 </i>
    <i name="e_wo_entrp">    -14.36081777 </i>
    <i name="e_0_energy">    -14.36647744 </i>
   </energy>
  </scstep>
  <scstep>
   <time name="total">    0.17    0.32</time>
   <energy>
    <i name="e_fr_energy">    -14.36942616 </i>
    <i name="e_wo_entrp">    -14.36090690 </i>
    <i name="e_0_energy">    -14.36658640 </i>
   </energy>
  </scstep>
  <scstep>
   <time name="total">    0.17    0.37</time>
   <energy>
    <i name="e_fr_energy">    -14.36947048 </i>
    <i name="e_wo_entrp">    -14.36092206 </i>
    <i name="e_0_energy">    -14.36662101 </i>
   </energy>
  </scstep>
  <scstep>
   <time name="total">    0.17    0.32</time>
   <energy>
    <i name="e_fr_energy">    -14.36948628 </i>
    <i name="e_wo_entrp">    -14.36091868 </i>
    <i name="e_0_energy">    -14.36663041 </i>
   </energy>
  </scstep>
  <scstep>
   <time name="total">    0.19    0.39</time>
   <energy>
    <i name="alphaZ">    521.20840448 </i>
    <i name="ewald">  -8297.58284019 </i>
    <i name="hartreedc">  -4374.45575671 </i>
    <i name="XCdc">    334.69635598 </i>
    <i name="pawpsdc">  10390.81814133 </i>
    <i name="pawaedc"> -10817.13289714 </i>
    <i name="eentropy">     -0.00857601 </i>
    <i name="bandstr">  -1052.11513464 </i>
    <i name="atom">  13280.20280305 </i>
    <i name="e_fr_energy">    -14.36949144 </i>
    <i name="e_wo_entrp">    -14.36091543 </i>
    <i name="e_0_energy">    -14.36663277 </i>
   </energy>
  </scstep>
  <structure>
   <crystal>
    <varray name="basis" >
     <v>       3.87600000       0.00000000       0.00000000 </v>
     <v>       0.00000000       3.87600000       0.00000000 </v>
     <v>       0.00000000       0.00000000       3.87600000 </v>
    </varray>
    <i name="volume">     58.23060538 </i>
    <varray name="rec_basis" >
     <v>       0.25799794       0.00000000       0.00000000 </v>
     <v>       0.00000000       0.25799794       0.00000000 </v>
     <v>       0.00000000       0.00000000       0.25799794 </v>
    </varray>
   </crystal>
   <varray name="positions" >
    <v>       0.00000000       0.00000000       0.00000000 </v>
    <v>       0.50000000       0.50000000       0.00000000 </v>
    <v>       0.50000000       0.00000000       0.50000000 </v>
    <v>       0.00000000       0.50000000       0.50000000 </v>
   </varray>
  </structure>
  <varray name="forces" >
   <v>       0.00000000       0.00000000       0.00000000 </v>
   <v>      -0.00000000      -0.00000000       0.00000000 </v>
   <v>      -0.00000000      -0.00000000      -0.00000000 </v>
   <v>       0.00000000       0.00000000      -0.00000000 </v>
  </varray>
  <varray name="stress" >
   <v>    -962.66262730       0.00000000      -0.00000000 </v>
   <v>       0.00000000    -962.66262730       0.00000000 </v>
   <v>       0.00000000      -0.00000000    -962.66262730 </v>
  </varray>
  <energy>
   <i name="e_fr_energy">    -14.36949144 </i>
   <i name="e_wo_entrp">    -14.36663277 </i>
   <i name="e_0_energy">     -0.00857601 </i>
  </energy>
  <time name="totalsc">    3.67    7.33</time>
 </calculation>
 <calculation>
  <scstep>
   <time name="total">    0.39    0.79</time>
   <energy>
    <i name="alphaZ">   2698.79589651 </i>
    <i name="ewald"> -14355.04221391 </i>
    <i name="hartreedc">  -3134.35719536 </i>
    <i name="XCdc">    450.28791824 </i>
    <i name="pawpsdc">  18956.27350455 </i>
    <i name="pawaedc"> -20605.87229488 </i>
    <i name="eentropy">     -0.00171938 </i>
    <i name="bandstr">   4363.20957132 </i>
    <i name="atom">  13280.20280305 </i>
    <i name="e_fr_energy">   1653.48941351 </i>
    <i name="e_wo_entrp">   1653.49113290 </i>
    <i name="e_0_energy">   1653.48998664 </i>
   </energy>
  </scstep>
  <scstep>
   <time name="total">    0.38    0.73</time>
   <energy>
    <i name="e_fr_energy">    434.90219235 </i>
    <i name="e_wo_entrp">    434.90894355 </i>
    <i name="e_0_energy">    434.90444275 </i>
   </energy>
  </scstep>
  <scstep>
   <time name="total">    0.38    0.78</time>
   <energy>
    <i name="e_fr_energy">    334.82058402 </i>
    <i name="e_wo_entrp">    334.81935356 </i>
    <i name="e_0_energy">    334.82017386 </i>
   </energy>
  </scstep>
  <scstep>
   <time name="total">    0.38    0.78</time>
   <energy>
    <i name="e_fr_energy">    310.40230950 </i>
    <i name="e_wo_entrp">    310.39430764 </i>
    <i name="e_0_energy">    310.39964221 </i>
   </energy>
  </scstep>
  <scstep>
   <time name="total">    0.38    0.73</time>
   <energy>
    <i name="e_fr_energy">    303.52808678 </i>
    <i name="e_wo_entrp">    303.53361802 </i>
    <i name="e_0_energy">    303.52993053 </i>
   </energy>
  </scstep>
  <scstep>
   <time name="total">    0.38    0.78</time>
   <energy>
    <i name="e_fr_energy">    301.87966368 </i>
    <i name="e_wo_entrp">    301.88764686 </i>
    <i name="e_0_energy">    301.88232474 </i>
   </energy>
  </scstep>
  <scstep>
   <time name="total">    0.39    0.79</time>
   <energy>
    <i name="e_fr_energy">    300.36033028 </i>
    <i name="e_wo_entrp">    300.36586052 </i>
    <i name="e_0_energy">    300.36217369 </i>
   </energy>
  </scstep>
  <scstep>
   <time name="total">    0.38    0.73</time>
   <energy>
    <i name="e_fr_energy">    299.81687501 </i>
    <i name="e_wo_entrp">    299.82294544 </i>
    <i name="e_0_energy">    299.81889849 </i>
   </energy>
  </scstep>
  <scstep>
   <time name="total">    0.38    0.78</time>
   <energy>
    <i name="e_fr_energy">    299.53008304 </i>
    <i name="e_wo_entrp">    299.52859294 </i>
    <i name="e_0_energy">    299.52958634 </i>
   </energy>
  </scstep>
  <scstep>
   <time name="total">    0.38    0.78</time>
   <energy>
    <i name="e_fr_energy">    299.37539515 </i>
    <i name="e_wo_entrp">    299.37410672 </i>
    <i name="e_0_energy">    299.37496567 </i>
   </energy>
  </scstep>
  <scstep>
   <time name="total">    0.38    0.73</time>
   <energy>
    <i name="e_fr_energy">    299.31964579 </i>
    <i name="e_wo_entrp">    299.31835737 </i>
    <i name="e_0_energy">    299.31921632 </i>
   </energy>
  </scstep>
  <scstep>
   <time name="total">    0.38    0.78</time>
   <energy>
    <i name="e_fr_energy">    299.30438983 </i>
    <i name="e_wo_entrp">    299.30310141 </i>
    <i name="e_0_energy">    299.30396036 </i>
   </energy>
  </scstep>
  <scstep>
   <time name="total">    0.38    0.78</time>
   <energy>
    <i name="e_fr_energy">    299.29648329 </i>
    <i name="e_wo_entrp">    299.29519486 </i>
    <i name="e_0_energy">    299.29605381 </i>
   </energy>
  </scstep>
  <scstep>
   <time name="total">    0.38    0.73</time>
   <energy>
    <i name="e_fr_energy">    299.29308501 </i>
    <i name="e_wo_entrp">    299.29179659 </i>
    <i name="e_0_energy">    299.29265554 </i>
   </energy>
  </scstep>
  <scstep>
   <time name="total">    0.38    0.78</time>
   <energy>
    <i name="e_fr_energy">    299.29152872 </i>
    <i name="e_wo_entrp">    299.29024030 </i>
    <i name="e_0_energy">    299.29109924 </i>
   </energy>
  </scstep>
  <scstep>
   <time name="total">    0.38    0.78</time>
   <energy>
    <i name="e_fr_energy">    299.29098064 </i>
    <i name="e_wo_entrp">    299.28969221 </i>
    <i name="e_0_energy">    299.29055116 </i>
   </energy>
  </scstep>
  <scstep>
   <time name="total">    0.38    0.73</time>
   <energy>
    <i name="e_fr_energy">    299.29075231 </i>
    <i name="e_wo_entrp">    299.28946389 </i>
    <i name="e_0_energy">    299.29032284 </i>
   </energy>
  </scstep>
  <scstep>
   <time name="total">    0.38    0.78</time>
   <energy>
    <i name="e_fr_energy">    299.29065725 </i>
    <i name="e_wo_entrp">    299.28936883 </i>
    <i name="e_0_energy">    299.29022778 </i>
   </energy>
  </scstep>
  <scstep>
   <time name="total">    0.38    0.78</time>
   <energy>
    <i name="e_fr_energy">    299.29062425 </i>
    <i name="e_wo_entrp">    299.28933583 </i>
    <i name="e_0_energy">    299.29019478 </i>
   </energy>
  </scstep>
  <scstep>
   <time name="total">    0.38    0.73</time>
   <energy>
    <i name="e_fr_energy">    299.29060917 </i>
    <i name="e_wo_entrp">    299.28932075 </i>
    <i name="e_0_energy">    299.29017970 </i>
   </energy>
  </scstep>
  <scstep>
   <time name="total">    0.40    0.86</time>
   <energy>
    <i name="alphaZ">   2698.79589651 </i>
    <i name="ewald"> -14355.04221391 </i>
    <i name="hartreedc">  -1870.66174987 </i>
    <i name="XCdc">    390.20994393 </i>
    <i name="pawpsdc">  18602.40875839 </i>
    <i name="pawaedc"> -19248.00590228 </i>
    <i name="eentropy">      0.00128842 </i>
    <i name="bandstr">    801.38177977 </i>
    <i name="atom">  13280.20280305 </i>
    <i name="e_fr_energy">    299.29060401 </i>
    <i name="e_wo_entrp">    299.28931559 </i>
    <i name="e_0_energy">    299.29017454 </i>
   </energy>
  </scstep>
  <structure>
   <crystal>
    <varray name="basis" >
     <v>       2.24042748       0.00000000      -0.00000000 </v>
     <v>       0.00000000       2.24042748       0.00000000 </v>
     <v>       0.00000000      -0.00000000       2.24042748 </v>
    </varray>
    <i name="volume">     11.24586004 </i>
    <varray name="rec_basis" >
     <v>       0.44634339       0.00000000      -0.00000000 </v>
     <v>      -0.00000000       0.44634339       0.00000000 </v>
     <v>       0.00000000       0.00000000       0.44634339 </v>
    </varray>
   </crystal>
   <varray name="positions" >
    <v>       0.00000000       0.00000000       0.00000000 </v>
    <v>       0.50000000       0.50000000       0.00000000 </v>
    <v>       0.50000000      -0.00000000       0.50000000 </v>
    <v>       0.00000000       0.50000000       0.50000000 </v>
   </varray>
  </structure>
  <varray name="forces" >
   <v>      -0.00000000      -0.00000000      -0.00000000 </v>
   <v>       0.00000000      -0.00000000      -0.00000000 </v>
   <v>       0.00000000      -0.00000000      -0.00000000 </v>
   <v>      -0.00000000       0.00000000       0.00000000 </v>
  </varray>
  <varray name="stress" >
   <v>   99708.10228258       0.00000000       0.00000000 </v>
   <v>       0.00000000   99708.10228258      -0.00000000 </v>
   <v>      -0.00000000      -0.00000000   99708.10228258 </v>
  </varray>
  <energy>
   <i name="e_fr_energy">    299.29060401 </i>
   <i name="e_wo_entrp">    299.29017454 </i>
   <i name="e_0_energy">      0.00128842 </i>
  </energy>
  <time name="totalsc">    9.72   19.49</time>
 </calculation>
 <calculation>
  <scstep>
   <time name="total">    0.17    0.32</time>
   <energy>
    <i name="alphaZ">    553.92914188 </i>
    <i name="ewald">  -8467.70783244 </i>
    <i name="hartreedc">   -162.83417193 </i>
    <i name="XCdc">    190.57855866 </i>
    <i name="pawpsdc">   3147.10938121 </i>
    <i name="pawaedc">  -3106.35644018 </i>
    <i name="eentropy">      0.00128959 </i>
    <i name="bandstr">   -211.33303598 </i>
    <i name="atom">  13280.20280305 </i>
    <i name="e_fr_energy">   5223.58969269 </i>
    <i name="e_wo_entrp">   5223.58840311 </i>
    <i name="e_0_energy">   5223.58926283 </i>
   </energy>
  </scstep>
  <scstep>
   <time name="total">    0.17    0.37</time>
   <energy>
    <i name="e_fr_energy">   3022.37165558 </i>
    <i name="e_wo_entrp">   3022.37481784 </i>
    <i name="e_0_energy">   3022.37270967 </i>
   </energy>
  </scstep>
  <scstep>
   <time name="total">    0.17    0.32</time>
   <energy>
    <i name="e_fr_energy">   3846.80126805 </i>
    <i name="e_wo_entrp">   3846.80397333 </i>
    <i name="e_0_energy">   3846.80216981 </i>
   </energy>
  </scstep>
  <scstep>
   <time name="total">    0.17    0.37</time>
   <energy>
    <i name="e_fr_energy">   3233.58369796 </i>
    <i name="e_wo_entrp">   3233.57986299 </i>
    <i name="e_0_energy">   3233.58241964 </i>
   </energy>
  </scstep>
  <scstep>
   <time name="total">    0.17    0.32</time>
   <energy>
    <i name="e_fr_energy">   1927.00588403 </i>
    <i name="e_wo_entrp">   1927.00780593 </i>
    <i name="e_0_energy">   1927.00652466 </i>
   </energy>
  </scstep>
  <scstep>
   <time name="total">    0.17    0.32</time>
   <energy>
    <i name="e_fr_energy">    880.89741806 </i>
    <i name="e_wo_entrp">    880.89863288 </i>
    <i name="e_0_energy">    880.89782300 </i>
   </energy>
  </scstep>
  <scstep>
   <time name="total">    0.17    0.37</time>
   <energy>
    <i name="e_fr_energy">    482.14847703 </i>
    <i name="e_wo_entrp">    482.15355175 </i>
    <i name="e_0_energy">    482.15016860 </i>
   </energy>
  </scstep>
  <scstep>
   <time name="total">    0.17    0.32</time>
   <energy>
    <i name="e_fr_energy">    255.20188066 </i>
    <i name="e_wo_entrp">    255.21294287 </i>
    <i name="e_0_energy">    255.20556806 </i>
   </energy>
  </scstep>
  <scstep>
   <time name="total">    0.17    0.37</time>
   <energy>
    <i name="e_fr_energy">    123.25789777 </i>
    <i name="e_wo_entrp">    123.26768986 </i>
    <i name="e_0_energy">    123.26116180 </i>
   </energy>
  </scstep>
  <scstep>
   <time name="total">    0.17    0.32</time>
   <energy>
    <i name="e_fr_energy">     54.62916170 </i>
    <i name="e_wo_entrp">     54.63550215 </i>
    <i name="e_0_energy">     54.63127518 </i>
   </energy>
  </scstep>
  <scstep>
   <time name="total">    0.17    0.37</time>
   <energy>
    <i name="e_fr_energy">     20.84649827 </i>
    <i name="e_wo_entrp">     20.85866207 </i>
    <i name="e_0_energy">     20.85055287 </i>
   </energy>
  </scstep>
  <scstep>
   <time name="total">    0.17    0.32</time>
   <energy>
    <i name="e_fr_energy">      4.75035364 </i>
    <i name="e_wo_entrp">      4.76126274 </i>
    <i name="e_0_energy">      4.75399001 </i>
   </energy>
  </scstep>
  <scstep>
   <time name="total">    0.17    0.32</time>
   <energy>
    <i name="e_fr_energy">     -4.62248937 </i>
    <i name="e_wo_entrp">     -4.61243755 </i>
    <i name="e_0_energy">     -4.61913876 </i>
   </energy>
  </scstep>
  <scstep>
   <time name="total">    0.17    0.37</time>
   <energy>
    <i name="e_fr_energy">     -9.09140327 </i>
    <i name="e_wo_entrp">     -9.07918099 </i>
    <i name="e_0_energy">     -9.08732918 </i>
   </energy>
  </scstep>
  <scstep>
   <time name="total">    0.30    0.60</time>
   <energy>
    <i name="e_fr_energy">    -11.55953794 </i>
    <i name="e_wo_entrp">    -11.56193658 </i>
    <i name="e_0_energy">    -11.56033749 </i>
   </energy>
  </scstep>
  <scstep>
   <time name="total">    0.17    0.32</time>
   <energy>
    <i name="e_fr_energy">     14.65231226 </i>
    <i name="e_wo_entrp">     14.66290824 </i>
    <i name="e_0_energy">     14.65584425 </i>
   </energy>
  </scstep>
  <scstep>
   <time name="total">    0.17    0.37</time>
   <energy>
    <i name="e_fr_energy">     -3.48800733 </i>
    <i name="e_wo_entrp">     -3.48632174 </i>
    <i name="e_0_energy">     -3.48744547 </i>
   </energy>
  </scstep>
  <scstep>
   <time name="total">    0.17    0.32</time>
   <energy>
    <i name="e_fr_energy">    -11.00232152 </i>
    <i name="e_wo_entrp">    -10.98080891 </i>
    <i name="e_0_energy">    -10.99515065 </i>
   </energy>
  </scstep>
  <scstep>
   <time name="total">    0.17    0.32</time>
   <energy>
    <i name="e_fr_energy">    -14.29791199 </i>
    <i name="e_wo_entrp">    -14.29094065 </i>
    <i name="e_0_energy">    -14.29558821 </i>
   </energy>
  </scstep>
  <scstep>
   <time name="total">    0.17    0.37</time>
   <energy>
    <i name="e_fr_energy">    -15.69222037 </i>
    <i name="e_wo_entrp">    -15.68840691 </i>
    <i name="e_0_energy">    -15.69094922 </i>
   </energy>
  </scstep>
  <scstep>
   <time name="total">    0.17    0.32</time>
   <energy>
    <i name="e_fr_energy">    -15.99442492 </i>
    <i name="e_wo_entrp">    -15.99026719 </i>
    <i name="e_0_energy">    -15.99303901 </i>
   </energy>
  </scstep>
  <scstep>
   <time name="total">    0.17    0.37</time>
   <energy>
    <i name="e_fr_energy">    -16.05412623 </i>
    <i name="e_wo_entrp">    -16.04957991 </i>
    <i name="e_0_energy">    -16.05261079 </i>
   </energy>
  </scstep>
  <scstep>
   <time name="total">    0.17    0.32</time>
   <energy>
    <i name="e_fr_energy">    -16.08673696 </i>
    <i name="e_wo_entrp">    -16.07840220 </i>
    <i name="e_0_energy">    -16.08395871 </i>
   </energy>
  </scstep>
  <scstep>
   <time name="total">    0.17    0.32</time>
   <energy>
    <i name="e_fr_energy">    -16.10358456 </i>
    <i name="e_wo_entrp">    -16.09668008 </i>
    <i name="e_0_energy">    -16.10128306 </i>
   </energy>
  </scstep>
  <scstep>
   <time name="total">    0.17    0.37</time>
   <energy>
    <i name="e_fr_energy">    -16.10654143 </i>
    <i name="e_wo_entrp">    -16.09988751 </i>
    <i name="e_0_energy">    -16.10432346 </i>
   </energy>
  </scstep>
  <scstep>
   <time name="total">    0.17    0.32</time>
   <energy>
    <i name="e_fr_energy">    -16.10847870 </i>
    <i name="e_wo_entrp">    -16.10121175 </i>
    <i name="e_0_energy">    -16.10605638 </i>
   </energy>
  </scstep>
  <scstep>
   <time name="total">    0.17    0.37</time>
   <energy>
    <i name="e_fr_energy">    -16.10947608 </i>
    <i name="e_wo_entrp">    -16.10127965 </i>
    <i name="e_0_energy">    -16.10674394 </i>
   </energy>
  </scstep>
  <scstep>
   <time name="total">    0.17    0.32</time>
   <energy>
    <i name="e_fr_energy">    -16.11020119 </i>
    <i name="e_wo_entrp">    -16.10163541 </i>
    <i name="e_0_energy">    -16.10734593 </i>
   </energy>
  </scstep>
  <scstep>
   <time name="total">    0.17    0.32</time>
   <energy>
    <i name="e_fr_energy">    -16.11051789 </i>
    <i name="e_wo_entrp">    -16.10182054 </i>
    <i name="e_0_energy">    -16.10761877 </i>
   </energy>
  </scstep>
  <scstep>
   <time name="total">    0.17    0.37</time>
   <energy>
    <i name="e_fr_energy">    -16.11068294 </i>
    <i name="e_wo_entrp">    -16.10198415 </i>
    <i name="e_0_energy">    -16.10778334 </i>
   </energy>
  </scstep>
  <scstep>
   <time name="total">    0.17    0.32</time>
   <energy>
    <i name="e_fr_energy">    -16.11074912 </i>
    <i name="e_wo_entrp">    -16.10207552 </i>
    <i name="e_0_energy">    -16.10785792 </i>
   </energy>
  </scstep>
  <scstep>
   <time name="total">    0.17    0.37</time>
   <energy>
    <i name="e_fr_energy">    -16.11079359 </i>
    <i name="e_wo_entrp">    -16.10214631 </i>
    <i name="e_0_energy">    -16.10791117 </i>
   </energy>
  </scstep>
  <scstep>
   <time name="total">    0.17    0.32</time>
   <energy>
    <i name="e_fr_energy">    -16.11081406 </i>
    <i name="e_wo_entrp">    -16.10220030 </i>
    <i name="e_0_energy">    -16.10794281 </i>
   </energy>
  </scstep>
  <scstep>
   <time name="total">    0.17    0.37</time>
   <energy>
    <i name="e_fr_energy">    -16.11082589 </i>
    <i name="e_wo_entrp">    -16.10222634 </i>
    <i name="e_0_energy">    -16.10795937 </i>
   </energy>
  </scstep>
  <scstep>
   <time name="total">    0.19    0.34</time>
   <energy>
    <i name="alphaZ">    553.92914188 </i>
    <i name="ewald">  -8467.70783244 </i>
    <i name="hartreedc">  -4266.71962964 </i>
    <i name="XCdc">    335.28893498 </i>
    <i name="pawpsdc">  10390.31165229 </i>
    <i name="pawaedc"> -10821.43328531 </i>
    <i name="eentropy">     -0.00859107 </i>
    <i name="bandstr">  -1019.97401582 </i>
    <i name="atom">  13280.20280305 </i>
    <i name="e_fr_energy">    -16.11083055 </i>
    <i name="e_wo_entrp">    -16.10223948 </i>
    <i name="e_0_energy">    -16.10796686 </i>
   </energy>
  </scstep>
  <structure>
   <crystal>
    <varray name="basis" >
     <v>       3.79812716       0.00000000      -0.00000000 </v>
     <v>       0.00000000       3.79812716       0.00000000 </v>
     <v>       0.00000000      -0.00000000       3.79812716 </v>
    </varray>
    <i name="volume">     54.79090849 </i>
    <varray name="rec_basis" >
     <v>       0.26328766       0.00000000      -0.00000000 </v>
     <v>      -0.00000000       0.26328766       0.00000000 </v>
     <v>       0.00000000       0.00000000       0.26328766 </v>
    </varray>
   </crystal>
   <varray name="positions" >
    <v>      -0.00000000      -0.00000000      -0.00000000 </v>
    <v>       0.50000000       0.50000000      -0.00000000 </v>
    <v>       0.50000000       0.00000000       0.50000000 </v>
    <v>      -0.00000000       0.50000000       0.50000000 </v>
   </varray>
  </structure>
  <varray name="forces" >
   <v>       0.00000000      -0.00000000       0.00000000 </v>
   <v>      -0.00000000      -0.00000000       0.00000000 </v>
   <v>      -0.00000000      -0.00000000      -0.00000000 </v>
   <v>       0.00000000       0.00000000      -0.00000000 </v>
  </varray>
  <varray name="stress" >
   <v>    -660.62676803       0.00000000      -0.00000000 </v>
   <v>       0.00000000    -660.62676803       0.00000000 </v>
   <v>       0.00000000       0.00000000    -660.62676803 </v>
  </varray>
  <energy>
   <i name="e_fr_energy">    -16.11083055 </i>
   <i name="e_wo_entrp">    -16.10796686 </i>
   <i name="e_0_energy">     -0.00859107 </i>
  </energy>
  <time name="totalsc">    6.58   13.19</time>
 </calculation>
 <calculation>
  <scstep>
   <time name="total">    0.17    0.32</time>
   <energy>
    <i name="alphaZ">    575.80017594 </i>
    <i name="ewald">  -8577.71721665 </i>
    <i name="hartreedc">  -4341.42872022 </i>
    <i name="XCdc">    341.15831805 </i>
    <i name="pawpsdc">  10575.83680044 </i>
    <i name="pawaedc"> -11041.66836470 </i>
    <i name="eentropy">     -0.00474373 </i>
    <i name="bandstr">   -826.23899089 </i>
    <i name="atom">  13280.20280305 </i>
    <i name="e_fr_energy">    -14.06378606 </i>
    <i name="e_wo_entrp">    -14.05904233 </i>
    <i name="e_0_energy">    -14.06220481 </i>
   </energy>
  </scstep>
  <scstep>
   <time name="total">    0.18    0.38</time>
   <energy>
    <i name="e_fr_energy">    -16.59844490 </i>
    <i name="e_wo_entrp">    -16.59441141 </i>
    <i name="e_0_energy">    -16.59710040 </i>
   </energy>
  </scstep>
  <scstep>
   <time name="total">    0.17    0.32</time>
   <energy>
    <i name="e_fr_energy">    -16.78952522 </i>
    <i name="e_wo_entrp">    -16.78508340 </i>
    <i name="e_0_energy">    -16.78804461 </i>
   </energy>
  </scstep>
  <scstep>
   <time name="total">    0.17    0.37</time>
   <energy>
    <i name="e_fr_energy">    -16.82155597 </i>
    <i name="e_wo_entrp">    -16.81672935 </i>
    <i name="e_0_energy">    -16.81994710 </i>
   </energy>
  </scstep>
  <scstep>
   <time name="total">    0.17    0.32</time>
   <energy>
    <i name="e_fr_energy">    -16.83834827 </i>
    <i name="e_wo_entrp">    -16.83322983 </i>
    <i name="e_0_energy">    -16.83664212 </i>
   </energy>
  </scstep>
  <scstep>
   <time name="total">    0.17    0.37</time>
   <energy>
    <i name="e_fr_energy">    -16.84373526 </i>
    <i name="e_wo_entrp">    -16.83827988 </i>
    <i name="e_0_energy">    -16.84191680 </i>
   </energy>
  </scstep>
  <scstep>
   <time name="total">    0.17    0.33</time>
   <energy>
    <i name="e_fr_energy">    -16.84783940 </i>
    <i name="e_wo_entrp">    -16.84222411 </i>
    <i name="e_0_energy">    -16.84596764 </i>
   </energy>
  </scstep>
  <scstep>
   <time name="total">    0.17    0.37</time>
   <energy>
    <i name="e_fr_energy">    -16.84888922 </i>
    <i name="e_wo_entrp">    -16.84318416 </i>
    <i name="e_0_energy">    -16.84698754 </i>
   </energy>
  </scstep>
  <scstep>
   <time name="total">    0.17    0.32</time>
   <energy>
    <i name="e_fr_energy">    -16.84915925 </i>
    <i name="e_wo_entrp">    -16.84341098 </i>
    <i name="e_0_energy">    -16.84724316 </i>
   </energy>
  </scstep>
  <scstep>
   <time name="total">    0.18    0.38</time>
   <energy>
    <i name="e_fr_energy">    -16.84922711 </i>
    <i name="e_wo_entrp">    -16.84345269 </i>
    <i name="e_0_energy">    -16.84730230 </i>
   </energy>
  </scstep>
  <scstep>
   <time name="total">    0.17    0.32</time>
   <energy>
    <i name="e_fr_energy">    -16.84924111 </i>
    <i name="e_wo_entrp">    -16.84345129 </i>
    <i name="e_0_energy">    -16.84731117 </i>
   </energy>
  </scstep>
  <scstep>
   <time name="total">    0.19    0.39</time>
   <energy>
    <i name="alphaZ">    575.80017594 </i>
    <i name="ewald">  -8577.71721665 </i>
    <i name="hartreedc">  -4198.59335900 </i>
    <i name="XCdc">    335.70404081 </i>
    <i name="pawpsdc">  10396.38437290 </i>
    <i name="pawaedc"> -10830.14128370 </i>
    <i name="eentropy">     -0.00580248 </i>
    <i name="bandstr">   -998.48298935 </i>
    <i name="atom">  13280.20280305 </i>
    <i name="e_fr_energy">    -16.84924584 </i>
    <i name="e_wo_entrp">    -16.84344336 </i>
    <i name="e_0_energy">    -16.84731168 </i>
   </energy>
  </scstep>
  <structure>
   <crystal>
    <varray name="basis" >
     <v>       3.74941611       0.00000000      -0.00000000 </v>
     <v>       0.00000000       3.74941611       0.00000000 </v>
     <v>       0.00000000      -0.00000000       3.74941611 </v>
    </varray>
    <i name="volume">     52.70974583 </i>
    <varray name="rec_basis" >
     <v>       0.26670819       0.00000000      -0.00000000 </v>
     <v>      -0.00000000       0.26670819       0.00000000 </v>
     <v>       0.00000000       0.00000000       0.26670819 </v>
    </varray>
   </crystal>
   <varray name="positions" >
    <v>      -0.00000000      -0.00000000      -0.00000000 </v>
    <v>       0.50000000       0.50000000      -0.00000000 </v>
    <v>       0.50000000       0.00000000       0.50000000 </v>
    <v>      -0.00000000       0.50000000       0.50000000 </v>
   </varray>
  </structure>
  <varray name="forces" >
   <v>      -0.00000000      -0.00000000      -0.00000000 </v>
   <v>      -0.00000000      -0.00000000       0.00000000 </v>
   <v>      -0.00000000       0.00000000       0.00000000 </v>
   <v>       0.00000000       0.00000000      -0.00000000 </v>
  </varray>
  <varray name="stress" >
   <v>    -476.21831520       0.00000000      -0.00000000 </v>
   <v>      -0.00000000    -476.21831520      -0.00000000 </v>
   <v>      -0.00000000       0.00000000    -476.21831520 </v>
  </varray>
  <energy>
   <i name="e_fr_energy">    -16.84924584 </i>
   <i name="e_wo_entrp">    -16.84731168 </i>
   <i name="e_0_energy">     -0.00580248 </i>
  </energy>
  <time name="totalsc">    2.59    5.20</time>
 </calculation>
 <calculation>
  <scstep>
   <time name="total">    0.18    0.33</time>
   <energy>
    <i name="alphaZ">    628.45910183 </i>
    <i name="ewald">  -8831.61510751 </i>
    <i name="hartreedc">  -4352.52422253 </i>
    <i name="XCdc">    348.60199596 </i>
    <i name="pawpsdc">  10816.55853416 </i>
    <i name="pawaedc"> -11329.11087692 </i>
    <i name="eentropy">     -0.00029820 </i>
    <i name="bandstr">   -564.61703571 </i>
    <i name="atom">  13280.20280305 </i>
    <i name="e_fr_energy">     -4.05061015 </i>
    <i name="e_wo_entrp">     -4.05031195 </i>
    <i name="e_0_energy">     -4.05051075 </i>
   </energy>
  </scstep>
  <scstep>
   <time name="total">    0.18    0.38</time>
   <energy>
    <i name="e_fr_energy">    -16.36181487 </i>
    <i name="e_wo_entrp">    -16.36011450 </i>
    <i name="e_0_energy">    -16.36124808 </i>
   </energy>
  </scstep>
  <scstep>
   <time name="total">    0.18    0.33</time>
   <energy>
    <i name="e_fr_energy">    -17.30644500 </i>
    <i name="e_wo_entrp">    -17.30256931 </i>
    <i name="e_0_energy">    -17.30515310 </i>
   </energy>
  </scstep>
  <scstep>
   <time name="total">    0.18    0.38</time>
   <energy>
    <i name="e_fr_energy">    -17.46105102 </i>
    <i name="e_wo_entrp">    -17.45666226 </i>
    <i name="e_0_energy">    -17.45958810 </i>
   </energy>
  </scstep>
  <scstep>
   <time name="total">    0.17    0.33</time>
   <energy>
    <i name="e_fr_energy">    -17.54391286 </i>
    <i name="e_wo_entrp">    -17.53913010 </i>
    <i name="e_0_energy">    -17.54231860 </i>
   </energy>
  </scstep>
  <scstep>
   <time name="total">    0.18    0.38</time>
   <energy>
    <i name="e_fr_energy">    -17.57297465 </i>
    <i name="e_wo_entrp">    -17.56746700 </i>
    <i name="e_0_energy">    -17.57113877 </i>
   </energy>
  </scstep>
  <scstep>
   <time name="total">    0.18    0.33</time>
   <energy>
    <i name="e_fr_energy">    -17.59334640 </i>
    <i name="e_wo_entrp">    -17.58772476 </i>
    <i name="e_0_energy">    -17.59147252 </i>
   </energy>
  </scstep>
  <scstep>
   <time name="total">    0.18    0.38</time>
   <energy>
    <i name="e_fr_energy">    -17.59887536 </i>
    <i name="e_wo_entrp">    -17.59325016 </i>
    <i name="e_0_energy">    -17.59700029 </i>
   </energy>
  </scstep>
  <scstep>
   <time name="total">    0.18    0.33</time>
   <energy>
    <i name="e_fr_energy">    -17.60041737 </i>
    <i name="e_wo_entrp">    -17.59481445 </i>
    <i name="e_0_energy">    -17.59854973 </i>
   </energy>
  </scstep>
  <scstep>
   <time name="total">    0.18    0.38</time>
   <energy>
    <i name="e_fr_energy">    -17.60086284 </i>
    <i name="e_wo_entrp">    -17.59525658 </i>
    <i name="e_0_energy">    -17.59899409 </i>
   </energy>
  </scstep>
  <scstep>
   <time name="total">    0.18    0.33</time>
   <energy>
    <i name="e_fr_energy">    -17.60096730 </i>
    <i name="e_wo_entrp">    -17.59537026 </i>
    <i name="e_0_energy">    -17.59910162 </i>
   </energy>
  </scstep>
  <scstep>
   <time name="total">    0.18    0.38</time>
   <energy>
    <i name="e_fr_energy">    -17.60099406 </i>
    <i name="e_wo_entrp">    -17.59540984 </i>
    <i name="e_0_energy">    -17.59913265 </i>
   </energy>
  </scstep>
  <scstep>
   <time name="total">    0.18    0.38</time>
   <energy>
    <i name="e_fr_energy">    -17.60100509 </i>
    <i name="e_wo_entrp">    -17.59542281 </i>
    <i name="e_0_energy">    -17.59914433 </i>
   </energy>
  </scstep>
  <scstep>
   <time name="total">    0.19    0.34</time>
   <energy>
    <i name="alphaZ">    628.45910183 </i>
    <i name="ewald">  -8831.61510751 </i>
    <i name="hartreedc">  -4046.12318663 </i>
    <i name="XCdc">    336.76777031 </i>
    <i name="pawpsdc">  10429.27122461 </i>
    <i name="pawaedc"> -10868.01621682 </i>
    <i name="eentropy">     -0.00558015 </i>
    <i name="bandstr">   -946.54181445 </i>
    <i name="atom">  13280.20280305 </i>
    <i name="e_fr_energy">    -17.60100791 </i>
    <i name="e_wo_entrp">    -17.59542775 </i>
    <i name="e_0_energy">    -17.59914786 </i>
   </energy>
  </scstep>
  <structure>
   <crystal>
    <varray name="basis" >
     <v>       3.64162508       0.00000000      -0.00000000 </v>
     <v>       0.00000000       3.64162508       0.00000000 </v>
     <v>       0.00000000      -0.00000000       3.64162508 </v>
    </varray>
    <i name="volume">     48.29316790 </i>
    <varray name="rec_basis" >
     <v>       0.27460268       0.00000000      -0.00000000 </v>
     <v>      -0.00000000       0.27460268       0.00000000 </v>
     <v>       0.00000000       0.00000000       0.27460268 </v>
    </varray>
   </crystal>
   <varray name="positions" >
    <v>      -0.00000000      -0.00000000      -0.00000000 </v>
    <v>       0.50000000       0.50000000      -0.00000000 </v>
    <v>       0.50000000       0.00000000       0.50000000 </v>
    <v>      -0.00000000       0.50000000       0.50000000 </v>
   </varray>
  </structure>
  <varray name="forces" >
   <v>      -0.00000000       0.00000000      -0.00000000 </v>
   <v>       0.00000000       0.00000000      -0.00000000 </v>
   <v>       0.00000000      -0.00000000       0.00000000 </v>
   <v>      -0.00000000      -0.00000000       0.00000000 </v>
  </varray>
  <varray name="stress" >
   <v>     -63.08649024       0.00000000       0.00000000 </v>
   <v>       0.00000000     -63.08649024       0.00000000 </v>
   <v>       0.00000000       0.00000000     -63.08649024 </v>
  </varray>
  <energy>
   <i name="e_fr_energy">    -17.60100791 </i>
   <i name="e_wo_entrp">    -17.59914786 </i>
   <i name="e_0_energy">     -0.00558015 </i>
  </energy>
  <time name="totalsc">    3.00    6.00</time>
 </calculation>
 <calculation>
  <scstep>
   <time name="total">    0.18    0.33</time>
   <energy>
    <i name="alphaZ">    636.10391199 </i>
    <i name="ewald">  -8867.28122729 </i>
    <i name="hartreedc">  -4068.09322254 </i>
    <i name="XCdc">    338.57757458 </i>
    <i name="pawpsdc">  10488.83434405 </i>
    <i name="pawaedc"> -10938.19567661 </i>
    <i name="eentropy">     -0.00527505 </i>
    <i name="bandstr">   -887.48612851 </i>
    <i name="atom">  13280.20280305 </i>
    <i name="e_fr_energy">    -17.34320144 </i>
    <i name="e_wo_entrp">    -17.33792638 </i>
    <i name="e_0_energy">    -17.34144309 </i>
   </energy>
  </scstep>
  <scstep>
   <time name="total">    0.17    0.38</time>
   <energy>
    <i name="e_fr_energy">    -17.58981312 </i>
    <i name="e_wo_entrp">    -17.58430299 </i>
    <i name="e_0_energy">    -17.58797641 </i>
   </energy>
  </scstep>
  <scstep>
   <time name="total">    0.17    0.32</time>
   <energy>
    <i name="e_fr_energy">    -17.60764498 </i>
    <i name="e_wo_entrp">    -17.60199737 </i>
    <i name="e_0_energy">    -17.60576244 </i>
   </energy>
  </scstep>
  <scstep>
   <time name="total">    0.18    0.38</time>
   <energy>
    <i name="e_fr_energy">    -17.61055427 </i>
    <i name="e_wo_entrp">    -17.60485146 </i>
    <i name="e_0_energy">    -17.60865334 </i>
   </energy>
  </scstep>
  <scstep>
   <time name="total">    0.18    0.33</time>
   <energy>
    <i name="e_fr_energy">    -17.61219359 </i>
    <i name="e_wo_entrp">    -17.60642691 </i>
    <i name="e_0_energy">    -17.61027136 </i>
   </energy>
  </scstep>
  <scstep>
   <time name="total">    0.18    0.38</time>
   <energy>
    <i name="e_fr_energy">    -17.61274793 </i>
    <i name="e_wo_entrp">    -17.60692611 </i>
    <i name="e_0_energy">    -17.61080732 </i>
   </energy>
  </scstep>
  <scstep>
   <time name="total">    0.18    0.33</time>
   <energy>
    <i name="e_fr_energy">    -17.61309258 </i>
    <i name="e_wo_entrp">    -17.60725673 </i>
    <i name="e_0_energy">    -17.61114730 </i>
   </energy>
  </scstep>
  <scstep>
   <time name="total">    0.18    0.38</time>
   <energy>
    <i name="e_fr_energy">    -17.61316433 </i>
    <i name="e_wo_entrp">    -17.60733210 </i>
    <i name="e_0_energy">    -17.61122025 </i>
   </energy>
  </scstep>
  <scstep>
   <time name="total">    0.18    0.33</time>
   <energy>
    <i name="e_fr_energy">    -17.61318696 </i>
    <i name="e_wo_entrp">    -17.60735248 </i>
    <i name="e_0_energy">    -17.61124213 </i>
   </energy>
  </scstep>
  <scstep>
   <time name="total">    0.19    0.39</time>
   <energy>
    <i name="alphaZ">    636.10391199 </i>
    <i name="ewald">  -8867.28122729 </i>
    <i name="hartreedc">  -4025.10156731 </i>
    <i name="XCdc">    336.92449056 </i>
    <i name="pawpsdc">  10435.57597049 </i>
    <i name="pawaedc"> -10874.93666444 </i>
    <i name="eentropy">     -0.00583438 </i>
    <i name="bandstr">   -939.09507417 </i>
    <i name="atom">  13280.20280305 </i>
    <i name="e_fr_energy">    -17.61319159 </i>
    <i name="e_wo_entrp">    -17.60735721 </i>
    <i name="e_0_energy">    -17.61124679 </i>
   </energy>
  </scstep>
  <structure>
   <crystal>
    <varray name="basis" >
     <v>       3.62697768       0.00000000      -0.00000000 </v>
     <v>       0.00000000       3.62697768       0.00000000 </v>
     <v>       0.00000000      -0.00000000       3.62697768 </v>
    </varray>
    <i name="volume">     47.71277200 </i>
    <varray name="rec_basis" >
     <v>       0.27571165       0.00000000      -0.00000000 </v>
     <v>      -0.00000000       0.27571165       0.00000000 </v>
     <v>       0.00000000       0.00000000       0.27571165 </v>
    </varray>
   </crystal>
   <varray name="positions" >
    <v>      -0.00000000      -0.00000000      -0.00000000 </v>
    <v>       0.50000000       0.50000000      -0.00000000 </v>
    <v>       0.50000000       0.00000000       0.50000000 </v>
    <v>      -0.00000000       0.50000000       0.50000000 </v>
   </varray>
  </structure>
  <varray name="forces" >
   <v>      -0.00000000       0.00000000       0.00000000 </v>
   <v>      -0.00000000       0.00000000       0.00000000 </v>
   <v>       0.00000000       0.00000000      -0.00000000 </v>
   <v>      -0.00000000      -0.00000000       0.00000000 </v>
  </varray>
  <varray name="stress" >
   <v>      -4.59305372       0.00000000      -0.00000000 </v>
   <v>       0.00000000      -4.59305372       0.00000000 </v>
   <v>      -0.00000000       0.00000000      -4.59305372 </v>
  </varray>
  <energy>
   <i name="e_fr_energy">    -17.61319159 </i>
   <i name="e_wo_entrp">    -17.61124679 </i>
   <i name="e_0_energy">     -0.00583438 </i>
  </energy>
  <time name="totalsc">    2.28    4.53</time>
 </calculation>
 <calculation>
  <scstep>
   <time name="total">    0.18    0.38</time>
   <energy>
    <i name="alphaZ">    636.70036087 </i>
    <i name="ewald">  -8870.05185836 </i>
    <i name="hartreedc">  -4026.81072021 </i>
    <i name="XCdc">    337.06485927 </i>
    <i name="pawpsdc">  10440.22752331 </i>
    <i name="pawaedc"> -10880.40031299 </i>
    <i name="eentropy">     -0.00581178 </i>
    <i name="bandstr">   -934.53845904 </i>
    <i name="atom">  13280.20280305 </i>
    <i name="e_fr_energy">    -17.61163847 </i>
    <i name="e_wo_entrp">    -17.60582670 </i>
    <i name="e_0_energy">    -17.60970121 </i>
   </energy>
  </scstep>
  <scstep>
   <time name="total">    0.18    0.35</time>
   <energy>
    <i name="e_fr_energy">    -17.61312237 </i>
    <i name="e_wo_entrp">    -17.60729624 </i>
    <i name="e_0_energy">    -17.61118033 </i>
   </energy>
  </scstep>
  <scstep>
   <time name="total">    0.18    0.35</time>
   <energy>
    <i name="e_fr_energy">    -17.61322760 </i>
    <i name="e_wo_entrp">    -17.60739333 </i>
    <i name="e_0_energy">    -17.61128284 </i>
   </energy>
  </scstep>
  <scstep>
   <time name="total">    0.18    0.33</time>
   <energy>
    <i name="e_fr_energy">    -17.61324289 </i>
    <i name="e_wo_entrp">    -17.60740513 </i>
    <i name="e_0_energy">    -17.61129697 </i>
   </energy>
  </scstep>
  <scstep>
   <time name="total">    0.19    0.39</time>
   <energy>
    <i name="alphaZ">    636.70036087 </i>
    <i name="ewald">  -8870.05185836 </i>
    <i name="hartreedc">  -4023.50839235 </i>
    <i name="XCdc">    336.93808054 </i>
    <i name="pawpsdc">  10436.25794980 </i>
    <i name="pawaedc"> -10875.64953101 </i>
    <i name="eentropy">     -0.00584198 </i>
    <i name="bandstr">   -938.49682574 </i>
    <i name="atom">  13280.20280305 </i>
    <i name="e_fr_energy">    -17.61325096 </i>
    <i name="e_wo_entrp">    -17.60740898 </i>
    <i name="e_0_energy">    -17.61130363 </i>
   </energy>
  </scstep>
  <structure>
   <crystal>
    <varray name="basis" >
     <v>       3.62584476       0.00000000      -0.00000000 </v>
     <v>       0.00000000       3.62584476       0.00000000 </v>
     <v>       0.00000000      -0.00000000       3.62584476 </v>
    </varray>
    <i name="volume">     47.66807557 </i>
    <varray name="rec_basis" >
     <v>       0.27579780       0.00000000      -0.00000000 </v>
     <v>      -0.00000000       0.27579780       0.00000000 </v>
     <v>       0.00000000       0.00000000       0.27579780 </v>
    </varray>
   </crystal>
   <varray name="positions" >
    <v>      -0.00000000      -0.00000000      -0.00000000 </v>
    <v>       0.50000000       0.50000000      -0.00000000 </v>
    <v>       0.50000000       0.00000000       0.50000000 </v>
    <v>      -0.00000000       0.50000000       0.50000000 </v>
   </varray>
  </structure>
  <varray name="forces" >
   <v>      -0.00000000      -0.00000000      -0.00000000 </v>
   <v>       0.00000000       0.00000000       0.00000000 </v>
   <v>       0.00000000       0.00000000      -0.00000000 </v>
   <v>       0.00000000      -0.00000000       0.00000000 </v>
  </varray>
  <varray name="stress" >
   <v>       0.96640117      -0.00000000      -0.00000000 </v>
   <v>       0.00000000       0.96640117      -0.00000000 </v>
   <v>       0.00000000       0.00000000       0.96640117 </v>
  </varray>
  <energy>
   <i name="e_fr_energy">    -17.61325096 </i>
   <i name="e_wo_entrp">    -17.61130363 </i>
   <i name="e_0_energy">     -0.00584198 </i>
  </energy>
  <time name="totalsc">    1.36    2.76</time>
  <eigenvalues>
   <array>
    <dimension dim="1">band</dimension>
    <dimension dim="2">kpoint</dimension>
    <dimension dim="3">spin</dimension>
    <field>eigene</field>
    <field>occ</field>
    <set>
     <set comment="spin 1">
      <set comment="kpoint 1">
       <r>  -62.1832    1.0000 </r>
       <r>  -62.1747    1.0000 </r>
       <r>  -62.1747    1.0000 </r>
       <r>  -62.1413    1.0000 </r>
       <r>  -62.1383    1.0000 </r>
       <r>  -62.1383    1.0000 </r>
       <r>  -62.1157    1.0000 </r>
       <r>  -62.1145    1.0000 </r>
       <r>  -62.1145    1.0000 </r>
       <r>   -2.3967    1.0000 </r>
       <r>    0.7547    1.0000 </r>
       <r>    0.7547    1.0000 </r>
       <r>    1.6333    1.0000 </r>
       <r>    1.6333    1.0000 </r>
       <r>    1.6725    1.0000 </r>
       <r>    2.7450    1.0000 </r>
       <r>    4.2652    1.0000 </r>
       <r>    4.3981    1.0000 </r>
       <r>    4.3981    1.0000 </r>
       <r>    5.3313    1.0000 </r>
       <r>    5.3313    1.0000 </r>
       <r>    5.8442    1.0000 </r>
       <r>    5.8548    1.0000 </r>
       <r>    5.8548    1.0000 </r>
       <r>    5.9340    1.0000 </r>
       <r>    5.9826    1.0000 </r>
       <r>    5.9826    1.0000 </r>
       <r>    6.1514    1.0000 </r>
       <r>    6.2847    1.0000 </r>
       <r>    6.2847    1.0000 </r>
       <r>    9.0890   -0.0000 </r>
       <r>    9.0912   -0.0000 </r>
       <r>    9.0912   -0.0000 </r>
       <r>   15.4675    0.0000 </r>
       <r>   16.7874    0.0000 </r>
       <r>   16.7874    0.0000 </r>
       <r>   18.9224    0.0000 </r>
      </set>
      <set comment="kpoint 2">
       <r>  -62.1699    1.0000 </r>
       <r>  -62.1672    1.0000 </r>
       <r>  -62.1584    1.0000 </r>
       <r>  -62.1351    1.0000 </r>
       <r>  -62.1327    1.0000 </r>
       <r>  -62.1302    1.0000 </r>
       <r>  -62.1235    1.0000 </r>
       <r>  -62.1125    1.0000 </r>
       <r>  -62.1114    1.0000 </r>
       <r>   -1.7083    1.0000 </r>
       <r>    0.9979    1.0000 </r>
       <r>    1.0611    1.0000 </r>
       <r>    1.7616    1.0000 </r>
       <r>    1.7892    1.0000 </r>
       <r>    1.8695    1.0000 </r>
       <r>    2.9083    1.0000 </r>
       <r>    4.0847    1.0000 </r>
       <r>    4.4910    1.0000 </r>
       <r>    4.5058    1.0000 </r>
       <r>    4.9204    1.0000 </r>
       <r>    5.0075    1.0000 </r>
       <r>    5.1177    1.0000 </r>
       <r>    5.3406    1.0000 </r>
       <r>    5.4439    1.0000 </r>
       <r>    5.7029    1.0000 </r>
       <r>    5.7123    1.0000 </r>
       <r>    5.7221    1.0000 </r>
       <r>    6.0875    1.0000 </r>
       <r>    6.1496    1.0000 </r>
       <r>    6.2852    1.0000 </r>
       <r>    6.9736    1.0000 </r>
       <r>   10.5372   -0.0000 </r>
       <r>   10.6426   -0.0000 </r>
       <r>   16.2384    0.0000 </r>
       <r>   16.3043    0.0000 </r>
       <r>   16.8154    0.0000 </r>
       <r>   17.4503    0.0000 </r>
      </set>
      <set comment="kpoint 3">
       <r>  -62.1637    1.0000 </r>
       <r>  -62.1572    1.0000 </r>
       <r>  -62.1491    1.0000 </r>
       <r>  -62.1480    1.0000 </r>
       <r>  -62.1400    1.0000 </r>
       <r>  -62.1259    1.0000 </r>
       <r>  -62.1202    1.0000 </r>
       <r>  -62.1163    1.0000 </r>
       <r>  -62.1117    1.0000 </r>
       <r>   -0.5772    1.0000 </r>
       <r>    1.0381    1.0000 </r>
       <r>    1.2951    1.0000 </r>
       <r>    1.9376    1.0000 </r>
       <r>    1.9655    1.0000 </r>
       <r>    2.1747    1.0000 </r>
       <r>    3.2175    1.0000 </r>
       <r>    3.8731    1.0000 </r>
       <r>    3.9777    1.0000 </r>
       <r>    4.1890    1.0000 </r>
       <r>    4.2114    1.0000 </r>
       <r>    4.7552    1.0000 </r>
       <r>    4.9002    1.0000 </r>
       <r>    5.1466    1.0000 </r>
       <r>    5.2973    1.0000 </r>
       <r>    5.3631    1.0000 </r>
       <r>    5.4202    1.0000 </r>
       <r>    5.6530    1.0000 </r>
       <r>    5.7155    1.0000 </r>
       <r>    5.8787    1.0000 </r>
       <r>    6.1323    1.0000 </r>
       <r>    6.2772    1.0000 </r>
       <r>   12.3877   -0.0000 </r>
       <r>   12.5739   -0.0000 </r>
       <r>   14.4281    0.0000 </r>
       <r>   14.6841    0.0000 </r>
       <r>   17.0547    0.0000 </r>
       <r>   17.0969    0.0000 </r>
      </set>
      <set comment="kpoint 4">
       <r>  -62.1722    1.0000 </r>
       <r>  -62.1638    1.0000 </r>
       <r>  -62.1547    1.0000 </r>
       <r>  -62.1451    1.0000 </r>
       <r>  -62.1355    1.0000 </r>
       <r>  -62.1306    1.0000 </r>
       <r>  -62.1215    1.0000 </r>
       <r>  -62.1125    1.0000 </r>
       <r>  -62.1088    1.0000 </r>
       <r>   -1.0617    1.0000 </r>
       <r>    1.1679    1.0000 </r>
       <r>    1.3964    1.0000 </r>
       <r>    1.8454    1.0000 </r>
       <r>    1.8722    1.0000 </r>
       <r>    2.0429    1.0000 </r>
       <r>    3.0173    1.0000 </r>
       <r>    3.9296    1.0000 </r>
       <r>    4.3015    1.0000 </r>
       <r>    4.6194    1.0000 </r>
       <r>    4.6229    1.0000 </r>
       <r>    4.6886    1.0000 </r>
       <r>    4.6915    1.0000 </r>
       <r>    5.0619    1.0000 </r>
       <r>    5.4646    1.0000 </r>
       <r>    5.4942    1.0000 </r>
       <r>    5.5651    1.0000 </r>
       <r>    5.5897    1.0000 </r>
       <r>    6.0000    1.0000 </r>
       <r>    6.0445    1.0000 </r>
       <r>    6.0654    1.0000 </r>
       <r>    8.0792   -0.0354 </r>
       <r>    8.3476   -0.0008 </r>
       <r>   11.7106   -0.0000 </r>
       <r>   13.9493    0.0000 </r>
       <r>   16.8572    0.0000 </r>
       <r>   17.6873    0.0000 </r>
       <r>   17.7102    0.0000 </r>
      </set>
      <set comment="kpoint 5">
       <r>  -62.1686    1.0000 </r>
       <r>  -62.1606    1.0000 </r>
       <r>  -62.1573    1.0000 </r>
       <r>  -62.1495    1.0000 </r>
       <r>  -62.1415    1.0000 </r>
       <r>  -62.1289    1.0000 </r>
       <r>  -62.1215    1.0000 </r>
       <r>  -62.1137    1.0000 </r>
       <r>  -62.1043    1.0000 </r>
       <r>    0.0011    1.0000 </r>
       <r>    1.0664    1.0000 </r>
       <r>    1.6476    1.0000 </r>
       <r>    1.8780    1.0000 </r>
       <r>    2.0447    1.0000 </r>
       <r>    2.4372    1.0000 </r>
       <r>    3.1510    1.0000 </r>
       <r>    3.8242    1.0000 </r>
       <r>    3.9854    1.0000 </r>
       <r>    4.0420    1.0000 </r>
       <r>    4.2643    1.0000 </r>
       <r>    4.4996    1.0000 </r>
       <r>    4.8186    1.0000 </r>
       <r>    5.0191    1.0000 </r>
       <r>    5.2155    1.0000 </r>
       <r>    5.3253    1.0000 </r>
       <r>    5.3411    1.0000 </r>
       <r>    5.6833    1.0000 </r>
       <r>    5.9152    1.0000 </r>
       <r>    5.9383    1.0000 </r>
       <r>    5.9486    1.0000 </r>
       <r>    6.5699    1.0000 </r>
       <r>    9.7021   -0.0000 </r>
       <r>   11.5083   -0.0000 </r>
       <r>   13.5350    0.0000 </r>
       <r>   15.4207    0.0000 </r>
       <r>   17.5785    0.0000 </r>
       <r>   19.0085    0.0000 </r>
      </set>
      <set comment="kpoint 6">
       <r>  -62.1677    1.0000 </r>
       <r>  -62.1608    1.0000 </r>
       <r>  -62.1476    1.0000 </r>
       <r>  -62.1467    1.0000 </r>
       <r>  -62.1367    1.0000 </r>
       <r>  -62.1366    1.0000 </r>
       <r>  -62.1232    1.0000 </r>
       <r>  -62.1136    1.0000 </r>
       <r>  -62.1002    1.0000 </r>
       <r>    0.6685    1.0000 </r>
       <r>    1.1243    1.0000 </r>
       <r>    1.8339    1.0000 </r>
       <r>    1.9422    1.0000 </r>
       <r>    2.4471    1.0000 </r>
       <r>    2.7234    1.0000 </r>
       <r>    3.1418    1.0000 </r>
       <r>    3.6836    1.0000 </r>
       <r>    4.0231    1.0000 </r>
       <r>    4.0730    1.0000 </r>
       <r>    4.2216    1.0000 </r>
       <r>    4.3834    1.0000 </r>
       <r>    4.4533    1.0000 </r>
       <r>    4.9649    1.0000 </r>
       <r>    5.0780    1.0000 </r>
       <r>    5.1366    1.0000 </r>
       <r>    5.2955    1.0000 </r>
       <r>    5.5556    1.0000 </r>
       <r>    5.5765    1.0000 </r>
       <r>    5.6992    1.0000 </r>
       <r>    6.5251    1.0000 </r>
       <r>    7.3940    1.0041 </r>
       <r>    7.8745    0.3257 </r>
       <r>    9.3089   -0.0000 </r>
       <r>   14.9826    0.0000 </r>
       <r>   16.6952    0.0000 </r>
       <r>   17.0216    0.0000 </r>
       <r>   18.2017    0.0000 </r>
      </set>
      <set comment="kpoint 7">
       <r>  -62.1741    1.0000 </r>
       <r>  -62.1591    1.0000 </r>
       <r>  -62.1591    1.0000 </r>
       <r>  -62.1366    1.0000 </r>
       <r>  -62.1366    1.0000 </r>
       <r>  -62.1317    1.0000 </r>
       <r>  -62.1310    1.0000 </r>
       <r>  -62.1115    1.0000 </r>
       <r>  -62.1115    1.0000 </r>
       <r>   -0.5089    1.0000 </r>
       <r>    1.3358    1.0000 </r>
       <r>    1.3358    1.0000 </r>
       <r>    2.0095    1.0000 </r>
       <r>    2.0095    1.0000 </r>
       <r>    2.2272    1.0000 </r>
       <r>    2.9941    1.0000 </r>
       <r>    3.8409    1.0000 </r>
       <r>    4.4264    1.0000 </r>
       <r>    4.4900    1.0000 </r>
       <r>    4.4900    1.0000 </r>
       <r>    4.5841    1.0000 </r>
       <r>    4.5841    1.0000 </r>
       <r>    5.0298    1.0000 </r>
       <r>    5.0298    1.0000 </r>
       <r>    5.2562    1.0000 </r>
       <r>    5.4907    1.0000 </r>
       <r>    5.4907    1.0000 </r>
       <r>    6.0864    1.0000 </r>
       <r>    6.1818    1.0000 </r>
       <r>    6.1818    1.0000 </r>
       <r>    8.9422   -0.0000 </r>
       <r>    8.9422   -0.0000 </r>
       <r>    8.9791   -0.0000 </r>
       <r>   14.3682    0.0000 </r>
       <r>   15.0643    0.0000 </r>
       <r>   15.0643    0.0000 </r>
       <r>   20.6473    0.0000 </r>
      </set>
      <set comment="kpoint 8">
       <r>  -62.1728    1.0000 </r>
       <r>  -62.1594    1.0000 </r>
       <r>  -62.1587    1.0000 </r>
       <r>  -62.1397    1.0000 </r>
       <r>  -62.1356    1.0000 </r>
       <r>  -62.1242    1.0000 </r>
       <r>  -62.1095    1.0000 </r>
       <r>  -62.1045    1.0000 </r>
       <r>  -62.0991    1.0000 </r>
       <r>    0.3560    1.0000 </r>
       <r>    1.1025    1.0000 </r>
       <r>    1.3211    1.0000 </r>
       <r>    2.0485    1.0000 </r>
       <r>    2.0662    1.0000 </r>
       <r>    2.7772    1.0000 </r>
       <r>    3.1985    1.0000 </r>
       <r>    3.9340    1.0000 </r>
       <r>    4.0886    1.0000 </r>
       <r>    4.2585    1.0000 </r>
       <r>    4.4993    1.0000 </r>
       <r>    4.5700    1.0000 </r>
       <r>    4.6046    1.0000 </r>
       <r>    4.8085    1.0000 </r>
       <r>    4.8491    1.0000 </r>
       <r>    5.0813    1.0000 </r>
       <r>    5.6777    1.0000 </r>
       <r>    5.8158    1.0000 </r>
       <r>    6.0171    1.0000 </r>
       <r>    6.0715    1.0000 </r>
       <r>    6.0805    1.0000 </r>
       <r>    6.7549    1.0000 </r>
       <r>    9.8625   -0.0000 </r>
       <r>   10.0401   -0.0000 </r>
       <r>   12.4059   -0.0000 </r>
       <r>   13.1799   -0.0000 </r>
       <r>   16.3729    0.0000 </r>
       <r>   18.3161    0.0000 </r>
      </set>
      <set comment="kpoint 9">
       <r>  -62.1794    1.0000 </r>
       <r>  -62.1692    1.0000 </r>
       <r>  -62.1623    1.0000 </r>
       <r>  -62.1615    1.0000 </r>
       <r>  -62.1257    1.0000 </r>
       <r>  -62.1184    1.0000 </r>
       <r>  -62.1113    1.0000 </r>
       <r>  -62.1085    1.0000 </r>
       <r>  -62.0977    1.0000 </r>
       <r>    0.6759    1.0000 </r>
       <r>    1.0294    1.0000 </r>
       <r>    1.1543    1.0000 </r>
       <r>    1.8764    1.0000 </r>
       <r>    2.4982    1.0000 </r>
       <r>    2.9586    1.0000 </r>
       <r>    3.7410    1.0000 </r>
       <r>    4.1875    1.0000 </r>
       <r>    4.2586    1.0000 </r>
       <r>    4.4156    1.0000 </r>
       <r>    4.4635    1.0000 </r>
       <r>    4.5559    1.0000 </r>
       <r>    4.6717    1.0000 </r>
       <r>    4.7418    1.0000 </r>
       <r>    4.7508    1.0000 </r>
       <r>    4.8519    1.0000 </r>
       <r>    5.6777    1.0000 </r>
       <r>    5.9346    1.0000 </r>
       <r>    5.9667    1.0000 </r>
       <r>    5.9696    1.0000 </r>
       <r>    6.3195    1.0000 </r>
       <r>    7.4013    1.0047 </r>
       <r>    7.7860    0.6903 </r>
       <r>    8.9534   -0.0000 </r>
       <r>   12.5079   -0.0000 </r>
       <r>   13.8492    0.0000 </r>
       <r>   14.4377    0.0000 </r>
       <r>   15.9814    0.0000 </r>
      </set>
      <set comment="kpoint 10">
       <r>  -62.1887    1.0000 </r>
       <r>  -62.1703    1.0000 </r>
       <r>  -62.1703    1.0000 </r>
       <r>  -62.1691    1.0000 </r>
       <r>  -62.1143    1.0000 </r>
       <r>  -62.1121    1.0000 </r>
       <r>  -62.1121    1.0000 </r>
       <r>  -62.1000    1.0000 </r>
       <r>  -62.1000    1.0000 </r>
       <r>    0.6641    1.0000 </r>
       <r>    0.7699    1.0000 </r>
       <r>    0.7699    1.0000 </r>
       <r>    1.9222    1.0000 </r>
       <r>    2.8540    1.0000 </r>
       <r>    2.8540    1.0000 </r>
       <r>    4.1385    1.0000 </r>
       <r>    4.3451    1.0000 </r>
       <r>    4.3451    1.0000 </r>
       <r>    4.5416    1.0000 </r>
       <r>    4.5416    1.0000 </r>
       <r>    4.6579    1.0000 </r>
       <r>    5.1314    1.0000 </r>
       <r>    5.2409    1.0000 </r>
       <r>    5.2409    1.0000 </r>
       <r>    5.4635    1.0000 </r>
       <r>    5.9882    1.0000 </r>
       <r>    5.9882    1.0000 </r>
       <r>    6.0505    1.0000 </r>
       <r>    6.1377    1.0000 </r>
       <r>    6.1377    1.0000 </r>
       <r>    7.4282    1.0075 </r>
       <r>    7.4282    1.0075 </r>
       <r>    7.4950    1.0192 </r>
       <r>   11.4140   -0.0000 </r>
       <r>   12.8367   -0.0000 </r>
       <r>   12.8367   -0.0000 </r>
       <r>   13.8896    0.0000 </r>
      </set>
     </set>
    </set>
   </array>
  </eigenvalues>
  <separator name="orbital magnetization" >
   <v name="MAGDIPOLOUT">      0.00000000      0.00000000      0.00000000</v>
  </separator>
  <dos>
   <i name="efermi">      7.83230378 </i>
   <total>
    <array>
     <dimension dim="1">gridpoints</dimension>
     <dimension dim="2">spin</dimension>
     <field>energy</field>
     <field>total</field>
     <field>integrated</field>
     <set>
      <set comment="spin 1">
       <r>   -66.3305     0.0000     0.0000 </r>
       <r>   -66.0267     0.0000     0.0000 </r>
       <r>   -65.7230     0.0000     0.0000 </r>
       <r>   -65.4193     0.0000     0.0000 </r>
       <r>   -65.1155     0.0000     0.0000 </r>
       <r>   -64.8118     0.0000     0.0000 </r>
       <r>   -64.5081     0.0000     0.0000 </r>
       <r>   -64.2043     0.0000     0.0000 </r>
       <r>   -63.9006    -0.0000    -0.0000 </r>
       <r>   -63.5969    -0.0000    -0.0000 </r>
       <r>   -63.2931    -0.0000    -0.0000 </r>
       <r>   -62.9894    -0.0000    -0.0000 </r>
       <r>   -62.6857    -0.0254    -0.0077 </r>
       <r>   -62.3819    -1.9509    -0.6003 </r>
       <r>   -62.0782    45.4991    13.2193 </r>
       <r>   -61.7745    16.5836    18.2562 </r>
       <r>   -61.4707    -0.8426    18.0003 </r>
       <r>   -61.1670    -0.0010    18.0000 </r>
       <r>   -60.8633    -0.0000    18.0000 </r>
       <r>   -60.5595     0.0000    18.0000 </r>
       <r>   -60.2558     0.0000    18.0000 </r>
       <r>   -59.9521     0.0000    18.0000 </r>
       <r>   -59.6484     0.0000    18.0000 </r>
       <r>   -59.3446     0.0000    18.0000 </r>
       <r>   -59.0409     0.0000    18.0000 </r>
       <r>   -58.7372     0.0000    18.0000 </r>
       <r>   -58.4334     0.0000    18.0000 </r>
       <r>   -58.1297     0.0000    18.0000 </r>
       <r>   -57.8260     0.0000    18.0000 </r>
       <r>   -57.5222     0.0000    18.0000 </r>
       <r>   -57.2185     0.0000    18.0000 </r>
       <r>   -56.9148     0.0000    18.0000 </r>
       <r>   -56.6110     0.0000    18.0000 </r>
       <r>   -56.3073     0.0000    18.0000 </r>
       <r>   -56.0036     0.0000    18.0000 </r>
       <r>   -55.6998     0.0000    18.0000 </r>
       <r>   -55.3961     0.0000    18.0000 </r>
       <r>   -55.0924     0.0000    18.0000 </r>
       <r>   -54.7886     0.0000    18.0000 </r>
       <r>   -54.4849     0.0000    18.0000 </r>
       <r>   -54.1812     0.0000    18.0000 </r>
       <r>   -53.8774     0.0000    18.0000 </r>
       <r>   -53.5737     0.0000    18.0000 </r>
       <r>   -53.2700     0.0000    18.0000 </r>
       <r>   -52.9663     0.0000    18.0000 </r>
       <r>   -52.6625     0.0000    18.0000 </r>
       <r>   -52.3588     0.0000    18.0000 </r>
       <r>   -52.0551     0.0000    18.0000 </r>
       <r>   -51.7513     0.0000    18.0000 </r>
       <r>   -51.4476     0.0000    18.0000 </r>
       <r>   -51.1439     0.0000    18.0000 </r>
       <r>   -50.8401     0.0000    18.0000 </r>
       <r>   -50.5364     0.0000    18.0000 </r>
       <r>   -50.2327     0.0000    18.0000 </r>
       <r>   -49.9289     0.0000    18.0000 </r>
       <r>   -49.6252     0.0000    18.0000 </r>
       <r>   -49.3215     0.0000    18.0000 </r>
       <r>   -49.0177     0.0000    18.0000 </r>
       <r>   -48.7140     0.0000    18.0000 </r>
       <r>   -48.4103     0.0000    18.0000 </r>
       <r>   -48.1065     0.0000    18.0000 </r>
       <r>   -47.8028     0.0000    18.0000 </r>
       <r>   -47.4991     0.0000    18.0000 </r>
       <r>   -47.1954     0.0000    18.0000 </r>
       <r>   -46.8916     0.0000    18.0000 </r>
       <r>   -46.5879     0.0000    18.0000 </r>
       <r>   -46.2842     0.0000    18.0000 </r>
       <r>   -45.9804     0.0000    18.0000 </r>
       <r>   -45.6767     0.0000    18.0000 </r>
       <r>   -45.3730     0.0000    18.0000 </r>
       <r>   -45.0692     0.0000    18.0000 </r>
       <r>   -44.7655     0.0000    18.0000 </r>
       <r>   -44.4618     0.0000    18.0000 </r>
       <r>   -44.1580     0.0000    18.0000 </r>
       <r>   -43.8543     0.0000    18.0000 </r>
       <r>   -43.5506     0.0000    18.0000 </r>
       <r>   -43.2468     0.0000    18.0000 </r>
       <r>   -42.9431     0.0000    18.0000 </r>
       <r>   -42.6394     0.0000    18.0000 </r>
       <r>   -42.3356     0.0000    18.0000 </r>
       <r>   -42.0319     0.0000    18.0000 </r>
       <r>   -41.7282     0.0000    18.0000 </r>
       <r>   -41.4244     0.0000    18.0000 </r>
       <r>   -41.1207     0.0000    18.0000 </r>
       <r>   -40.8170     0.0000    18.0000 </r>
       <r>   -40.5133     0.0000    18.0000 </r>
       <r>   -40.2095     0.0000    18.0000 </r>
       <r>   -39.9058     0.0000    18.0000 </r>
       <r>   -39.6021     0.0000    18.0000 </r>
       <r>   -39.2983     0.0000    18.0000 </r>
       <r>   -38.9946     0.0000    18.0000 </r>
       <r>   -38.6909     0.0000    18.0000 </r>
       <r>   -38.3871     0.0000    18.0000 </r>
       <r>   -38.0834     0.0000    18.0000 </r>
       <r>   -37.7797     0.0000    18.0000 </r>
       <r>   -37.4759     0.0000    18.0000 </r>
       <r>   -37.1722     0.0000    18.0000 </r>
       <r>   -36.8685     0.0000    18.0000 </r>
       <r>   -36.5647     0.0000    18.0000 </r>
       <r>   -36.2610     0.0000    18.0000 </r>
       <r>   -35.9573     0.0000    18.0000 </r>
       <r>   -35.6535     0.0000    18.0000 </r>
       <r>   -35.3498     0.0000    18.0000 </r>
       <r>   -35.0461     0.0000    18.0000 </r>
       <r>   -34.7423     0.0000    18.0000 </r>
       <r>   -34.4386     0.0000    18.0000 </r>
       <r>   -34.1349     0.0000    18.0000 </r>
       <r>   -33.8312     0.0000    18.0000 </r>
       <r>   -33.5274     0.0000    18.0000 </r>
       <r>   -33.2237     0.0000    18.0000 </r>
       <r>   -32.9200     0.0000    18.0000 </r>
       <r>   -32.6162     0.0000    18.0000 </r>
       <r>   -32.3125     0.0000    18.0000 </r>
       <r>   -32.0088     0.0000    18.0000 </r>
       <r>   -31.7050     0.0000    18.0000 </r>
       <r>   -31.4013     0.0000    18.0000 </r>
       <r>   -31.0976     0.0000    18.0000 </r>
       <r>   -30.7938     0.0000    18.0000 </r>
       <r>   -30.4901     0.0000    18.0000 </r>
       <r>   -30.1864     0.0000    18.0000 </r>
       <r>   -29.8826     0.0000    18.0000 </r>
       <r>   -29.5789     0.0000    18.0000 </r>
       <r>   -29.2752     0.0000    18.0000 </r>
       <r>   -28.9714     0.0000    18.0000 </r>
       <r>   -28.6677     0.0000    18.0000 </r>
       <r>   -28.3640     0.0000    18.0000 </r>
       <r>   -28.0602     0.0000    18.0000 </r>
       <r>   -27.7565     0.0000    18.0000 </r>
       <r>   -27.4528     0.0000    18.0000 </r>
       <r>   -27.1491     0.0000    18.0000 </r>
       <r>   -26.8453     0.0000    18.0000 </r>
       <r>   -26.5416     0.0000    18.0000 </r>
       <r>   -26.2379     0.0000    18.0000 </r>
       <r>   -25.9341     0.0000    18.0000 </r>
       <r>   -25.6304     0.0000    18.0000 </r>
       <r>   -25.3267     0.0000    18.0000 </r>
       <r>   -25.0229     0.0000    18.0000 </r>
       <r>   -24.7192     0.0000    18.0000 </r>
       <r>   -24.4155     0.0000    18.0000 </r>
       <r>   -24.1117     0.0000    18.0000 </r>
       <r>   -23.8080     0.0000    18.0000 </r>
       <r>   -23.5043     0.0000    18.0000 </r>
       <r>   -23.2005     0.0000    18.0000 </r>
       <r>   -22.8968     0.0000    18.0000 </r>
       <r>   -22.5931     0.0000    18.0000 </r>
       <r>   -22.2893     0.0000    18.0000 </r>
       <r>   -21.9856     0.0000    18.0000 </r>
       <r>   -21.6819     0.0000    18.0000 </r>
       <r>   -21.3781     0.0000    18.0000 </r>
       <r>   -21.0744     0.0000    18.0000 </r>
       <r>   -20.7707     0.0000    18.0000 </r>
       <r>   -20.4670     0.0000    18.0000 </r>
       <r>   -20.1632     0.0000    18.0000 </r>
       <r>   -19.8595     0.0000    18.0000 </r>
       <r>   -19.5558     0.0000    18.0000 </r>
       <r>   -19.2520     0.0000    18.0000 </r>
       <r>   -18.9483     0.0000    18.0000 </r>
       <r>   -18.6446     0.0000    18.0000 </r>
       <r>   -18.3408     0.0000    18.0000 </r>
       <r>   -18.0371     0.0000    18.0000 </r>
       <r>   -17.7334     0.0000    18.0000 </r>
       <r>   -17.4296     0.0000    18.0000 </r>
       <r>   -17.1259     0.0000    18.0000 </r>
       <r>   -16.8222     0.0000    18.0000 </r>
       <r>   -16.5184     0.0000    18.0000 </r>
       <r>   -16.2147     0.0000    18.0000 </r>
       <r>   -15.9110     0.0000    18.0000 </r>
       <r>   -15.6072     0.0000    18.0000 </r>
       <r>   -15.3035     0.0000    18.0000 </r>
       <r>   -14.9998     0.0000    18.0000 </r>
       <r>   -14.6960     0.0000    18.0000 </r>
       <r>   -14.3923     0.0000    18.0000 </r>
       <r>   -14.0886     0.0000    18.0000 </r>
       <r>   -13.7849     0.0000    18.0000 </r>
       <r>   -13.4811     0.0000    18.0000 </r>
       <r>   -13.1774     0.0000    18.0000 </r>
       <r>   -12.8737     0.0000    18.0000 </r>
       <r>   -12.5699     0.0000    18.0000 </r>
       <r>   -12.2662     0.0000    18.0000 </r>
       <r>   -11.9625     0.0000    18.0000 </r>
       <r>   -11.6587     0.0000    18.0000 </r>
       <r>   -11.3550     0.0000    18.0000 </r>
       <r>   -11.0513     0.0000    18.0000 </r>
       <r>   -10.7475     0.0000    18.0000 </r>
       <r>   -10.4438     0.0000    18.0000 </r>
       <r>   -10.1401     0.0000    18.0000 </r>
       <r>    -9.8363     0.0000    18.0000 </r>
       <r>    -9.5326     0.0000    18.0000 </r>
       <r>    -9.2289     0.0000    18.0000 </r>
       <r>    -8.9251     0.0000    18.0000 </r>
       <r>    -8.6214     0.0000    18.0000 </r>
       <r>    -8.3177     0.0000    18.0000 </r>
       <r>    -8.0139     0.0000    18.0000 </r>
       <r>    -7.7102     0.0000    18.0000 </r>
       <r>    -7.4065     0.0000    18.0000 </r>
       <r>    -7.1028     0.0000    18.0000 </r>
       <r>    -6.7990     0.0000    18.0000 </r>
       <r>    -6.4953     0.0000    18.0000 </r>
       <r>    -6.1916     0.0000    18.0000 </r>
       <r>    -5.8878     0.0000    18.0000 </r>
       <r>    -5.5841     0.0000    18.0000 </r>
       <r>    -5.2804     0.0000    18.0000 </r>
       <r>    -4.9766     0.0000    18.0000 </r>
       <r>    -4.6729     0.0000    18.0000 </r>
       <r>    -4.3692     0.0000    18.0000 </r>
       <r>    -4.0654    -0.0000    18.0000 </r>
       <r>    -3.7617    -0.0000    18.0000 </r>
       <r>    -3.4580    -0.0000    18.0000 </r>
       <r>    -3.1542    -0.0000    18.0000 </r>
       <r>    -2.8505    -0.0007    17.9998 </r>
       <r>    -2.5468     0.0065    18.0018 </r>
       <r>    -2.2430     0.2332    18.0726 </r>
       <r>    -1.9393    -0.0198    18.0666 </r>
       <r>    -1.6356     0.5997    18.2487 </r>
       <r>    -1.3318     0.1405    18.2914 </r>
       <r>    -1.0281     0.4817    18.4377 </r>
       <r>    -0.7244     0.2929    18.5267 </r>
       <r>    -0.4207     0.8899    18.7970 </r>
       <r>    -0.1169     0.1849    18.8532 </r>
       <r>     0.1868     1.3569    19.2653 </r>
       <r>     0.4905     0.6234    19.4546 </r>
       <r>     0.7943     2.0920    20.0900 </r>
       <r>     1.0980     4.7733    21.5398 </r>
       <r>     1.4017     5.2731    23.1414 </r>
       <r>     1.7055     2.5185    23.9064 </r>
       <r>     2.0092    10.0739    26.9662 </r>
       <r>     2.3129     4.6156    28.3681 </r>
       <r>     2.6167     2.6941    29.1864 </r>
       <r>     2.9204     2.7649    30.0262 </r>
       <r>     3.2241     4.5253    31.4006 </r>
       <r>     3.5279     0.9647    31.6936 </r>
       <r>     3.8316     2.5336    32.4632 </r>
       <r>     4.1353     9.4333    35.3284 </r>
       <r>     4.4391    10.7807    38.6028 </r>
       <r>     4.7428    12.6651    42.4496 </r>
       <r>     5.0465     9.7539    45.4122 </r>
       <r>     5.3503    10.7755    48.6850 </r>
       <r>     5.6540    10.8207    51.9716 </r>
       <r>     5.9577    12.6819    55.8235 </r>
       <r>     6.2614    12.0680    59.4890 </r>
       <r>     6.5652     2.9633    60.3890 </r>
       <r>     6.8689     1.7162    60.9103 </r>
       <r>     7.1726     0.6118    61.0961 </r>
       <r>     7.4764     1.6478    61.5966 </r>
       <r>     7.7801     1.0609    61.9188 </r>
       <r>     8.0838     1.3959    62.3428 </r>
       <r>     8.3876     0.8408    62.5982 </r>
       <r>     8.6913     0.1827    62.6537 </r>
       <r>     8.9950     1.1083    62.9903 </r>
       <r>     9.2988     1.4996    63.4458 </r>
       <r>     9.6025     0.5469    63.6119 </r>
       <r>     9.9062     1.8529    64.1746 </r>
       <r>    10.2100     0.8843    64.4432 </r>
       <r>    10.5137     0.3437    64.5476 </r>
       <r>    10.8174     1.1516    64.8974 </r>
       <r>    11.1212    -0.0482    64.8828 </r>
       <r>    11.4249     0.3924    65.0020 </r>
       <r>    11.7286     1.8100    65.5517 </r>
       <r>    12.0324     0.2523    65.6284 </r>
       <r>    12.3361     0.3507    65.7349 </r>
       <r>    12.6398     2.4057    66.4656 </r>
       <r>    12.9435     0.5947    66.6462 </r>
       <r>    13.2473     0.5881    66.8248 </r>
       <r>    13.5510     1.0192    67.1344 </r>
       <r>    13.8547     1.2642    67.5184 </r>
       <r>    14.1585     1.0908    67.8497 </r>
       <r>    14.4622     1.1019    68.1844 </r>
       <r>    14.7659     1.2041    68.5501 </r>
       <r>    15.0697     0.9857    68.8495 </r>
       <r>    15.3734     0.8763    69.1156 </r>
       <r>    15.6771     1.2432    69.4932 </r>
       <r>    15.9809     0.2777    69.5776 </r>
       <r>    16.2846     1.3586    69.9902 </r>
       <r>    16.5883     1.3236    70.3923 </r>
       <r>    16.8921     2.1930    71.0584 </r>
       <r>    17.1958     2.4749    71.8101 </r>
       <r>    17.4995     0.9081    72.0859 </r>
       <r>    17.8033     2.7672    72.9264 </r>
       <r>    18.1070     0.2163    72.9921 </r>
       <r>    18.4107     1.2825    73.3816 </r>
       <r>    18.7145     0.0423    73.3944 </r>
       <r>    19.0182     1.0437    73.7114 </r>
       <r>    19.3219     0.7441    73.9374 </r>
       <r>    19.6256    -0.0379    73.9260 </r>
       <r>    19.9294    -0.0001    73.9259 </r>
       <r>    20.2331    -0.0015    73.9255 </r>
       <r>    20.5368     0.0266    73.9335 </r>
       <r>    20.8406     0.2241    74.0016 </r>
       <r>    21.1443    -0.0049    74.0001 </r>
       <r>    21.4480    -0.0003    74.0000 </r>
       <r>    21.7518    -0.0000    74.0000 </r>
       <r>    22.0555    -0.0000    74.0000 </r>
       <r>    22.3592     0.0000    74.0000 </r>
       <r>    22.6630     0.0000    74.0000 </r>
       <r>    22.9667     0.0000    74.0000 </r>
       <r>    23.2704     0.0000    74.0000 </r>
       <r>    23.5742     0.0000    74.0000 </r>
       <r>    23.8779     0.0000    74.0000 </r>
       <r>    24.1816     0.0000    74.0000 </r>
       <r>    24.4854     0.0000    74.0000 </r>
       <r>    24.7891     0.0000    74.0000 </r>
      </set>
     </set>
    </array>
   </total>
  </dos>
 </calculation>
 <structure name="finalpos" >
  <crystal>
   <varray name="basis" >
    <v>       3.62584476       0.00000000      -0.00000000 </v>
    <v>       0.00000000       3.62584476       0.00000000 </v>
    <v>       0.00000000      -0.00000000       3.62584476 </v>
   </varray>
   <i name="volume">     47.66807557 </i>
   <varray name="rec_basis" >
    <v>       0.27579780       0.00000000      -0.00000000 </v>
    <v>      -0.00000000       0.27579780       0.00000000 </v>
    <v>       0.00000000       0.00000000       0.27579780 </v>
   </varray>
  </crystal>
  <varray name="positions" >
   <v>      -0.00000000      -0.00000000      -0.00000000 </v>
   <v>       0.50000000       0.50000000      -0.00000000 </v>
   <v>       0.50000000       0.00000000       0.50000000 </v>
   <v>      -0.00000000       0.50000000       0.50000000 </v>
  </varray>
 </structure>
</modeling>
