unknown system                          
           1
     3.876000    0.000000    0.000000
     0.000000    3.876000    0.000000
     0.000000    0.000000    3.876000
   Au   Cu
   1   3
Direct configuration=     1
   0.00000000  0.00000000  0.00000000
   0.50000000  0.50000000  0.00000000
   0.50000000  0.00000000  0.50000000
   0.00000000  0.50000000  0.50000000
unknown system                          
           1
     2.240427    0.000000   -0.000000
     0.000000    2.240427    0.000000
     0.000000   -0.000000    2.240427
   Au   Cu
   1   3
Direct configuration=     2
   0.00000000  0.00000000  0.00000000
   0.50000000  0.50000000  0.00000000
   0.50000000 -0.00000000  0.50000000
   0.00000000  0.50000000  0.50000000
unknown system                          
           1
     3.798127    0.000000   -0.000000
     0.000000    3.798127    0.000000
     0.000000   -0.000000    3.798127
   Au   Cu
   1   3
Direct configuration=     3
  -0.00000000 -0.00000000 -0.00000000
   0.50000000  0.50000000 -0.00000000
   0.50000000  0.00000000  0.50000000
  -0.00000000  0.50000000  0.50000000
unknown system                          
           1
     3.749416    0.000000   -0.000000
     0.000000    3.749416    0.000000
     0.000000   -0.000000    3.749416
   Au   Cu
   1   3
Direct configuration=     4
  -0.00000000 -0.00000000 -0.00000000
   0.50000000  0.50000000 -0.00000000
   0.50000000  0.00000000  0.50000000
  -0.00000000  0.50000000  0.50000000
unknown system                          
           1
     3.641625    0.000000   -0.000000
     0.000000    3.641625    0.000000
     0.000000   -0.000000    3.641625
   Au   Cu
   1   3
Direct configuration=     5
  -0.00000000 -0.00000000 -0.00000000
   0.50000000  0.50000000 -0.00000000
   0.50000000  0.00000000  0.50000000
  -0.00000000  0.50000000  0.50000000
unknown system                          
           1
     3.626978    0.000000   -0.000000
     0.000000    3.626978    0.000000
     0.000000   -0.000000    3.626978
   Au   Cu
   1   3
Direct configuration=     6
  -0.00000000 -0.00000000 -0.00000000
   0.50000000  0.50000000 -0.00000000
   0.50000000  0.00000000  0.50000000
  -0.00000000  0.50000000  0.50000000
unknown system                          
           1
     3.625845    0.000000   -0.000000
     0.000000    3.625845    0.000000
     0.000000   -0.000000    3.625845
   Au   Cu
   1   3
Direct configuration=     7
  -0.00000000 -0.00000000 -0.00000000
   0.50000000  0.50000000 -0.00000000
   0.50000000  0.00000000  0.50000000
  -0.00000000  0.50000000  0.50000000
