   8   8   0   0
  0.2001288E+02  0.5430000E-09  0.5430000E-09  0.5430000E-09  0.5000000E-15
  1.000000000000000E-004
  CAR 
 Si (diamond)                            
     12.62461302     -8.13042328  301      5.85328243      1.00000000
     -8.130  0.0000E+00  0.0000E+00
     -8.061  0.0000E+00  0.0000E+00
     -7.992  0.0000E+00  0.0000E+00
     -7.923  0.0000E+00  0.0000E+00
     -7.854  0.0000E+00  0.0000E+00
     -7.785  0.0000E+00  0.0000E+00
     -7.715  0.0000E+00  0.0000E+00
     -7.646  0.0000E+00  0.0000E+00
     -7.577  0.0000E+00  0.0000E+00
     -7.508  0.0000E+00  0.0000E+00
     -7.439  0.0000E+00  0.0000E+00
     -7.369  0.0000E+00  0.0000E+00
     -7.300  0.0000E+00  0.0000E+00
     -7.231  0.0000E+00  0.0000E+00
     -7.162  0.0000E+00  0.0000E+00
     -7.093  0.0000E+00  0.0000E+00
     -7.023  0.0000E+00  0.0000E+00
     -6.954  0.0000E+00  0.0000E+00
     -6.885  0.0000E+00  0.0000E+00
     -6.816  0.0000E+00  0.0000E+00
     -6.747  0.0000E+00  0.0000E+00
     -6.678  0.0000E+00  0.0000E+00
     -6.608  0.0000E+00  0.0000E+00
     -6.539  0.0000E+00  0.0000E+00
     -6.470  0.0000E+00  0.0000E+00
     -6.401  0.0000E+00  0.0000E+00
     -6.332  0.0000E+00  0.0000E+00
     -6.262  0.0000E+00  0.0000E+00
     -6.193  0.0000E+00  0.0000E+00
     -6.124  0.3816E-02  0.8039E-05
     -6.055  0.3530E+00  0.1169E-01
     -5.986  0.4680E+00  0.3902E-01
     -5.917  0.6287E+00  0.7804E-01
     -5.847  0.6990E+00  0.1233E+00
     -5.778  0.7999E+00  0.1752E+00
     -5.709  0.9073E+00  0.2344E+00
     -5.640  0.9626E+00  0.2989E+00
     -5.571  0.1028E+01  0.3678E+00
     -5.501  0.1106E+01  0.4415E+00
     -5.432  0.1193E+01  0.5210E+00
     -5.363  0.1245E+01  0.6056E+00
     -5.294  0.1301E+01  0.6936E+00
     -5.225  0.1360E+01  0.7856E+00
     -5.156  0.1427E+01  0.8819E+00
     -5.086  0.1495E+01  0.9830E+00
     -5.017  0.1563E+01  0.1089E+01
     -4.948  0.1614E+01  0.1199E+01
     -4.879  0.1668E+01  0.1312E+01
     -4.810  0.1726E+01  0.1430E+01
     -4.740  0.1788E+01  0.1551E+01
     -4.671  0.1857E+01  0.1677E+01
     -4.602  0.1932E+01  0.1808E+01
     -4.533  0.1999E+01  0.1944E+01
     -4.464  0.2060E+01  0.2085E+01
     -4.395  0.2238E+01  0.2231E+01
     -4.325  0.2357E+01  0.2390E+01
     -4.256  0.2418E+01  0.2556E+01
     -4.187  0.2597E+01  0.2731E+01
     -4.118  0.2602E+01  0.2911E+01
     -4.049  0.2526E+01  0.3088E+01
     -3.979  0.2478E+01  0.3261E+01
     -3.910  0.2527E+01  0.3434E+01
     -3.841  0.2923E+01  0.3622E+01
     -3.772  0.3657E+01  0.3851E+01
     -3.703  0.3828E+01  0.4113E+01
     -3.633  0.3228E+01  0.4350E+01
     -3.564  0.3482E+01  0.4582E+01
     -3.495  0.3632E+01  0.4837E+01
     -3.426  0.2922E+01  0.5053E+01
     -3.357  0.3071E+01  0.5255E+01
     -3.288  0.2826E+01  0.5461E+01
     -3.218  0.2967E+01  0.5659E+01
     -3.149  0.3326E+01  0.5879E+01
     -3.080  0.2652E+01  0.6080E+01
     -3.011  0.2427E+01  0.6255E+01
     -2.942  0.2320E+01  0.6419E+01
     -2.872  0.2212E+01  0.6576E+01
     -2.803  0.2116E+01  0.6726E+01
     -2.734  0.2064E+01  0.6870E+01
     -2.665  0.2524E+01  0.7031E+01
     -2.596  0.2256E+01  0.7214E+01
     -2.527  0.1939E+01  0.7358E+01
     -2.457  0.1683E+01  0.7483E+01
     -2.388  0.1467E+01  0.7592E+01
     -2.319  0.1264E+01  0.7686E+01
     -2.250  0.1070E+01  0.7767E+01
     -2.181  0.8958E+00  0.7835E+01
     -2.111  0.7365E+00  0.7891E+01
     -2.042  0.6847E+00  0.7940E+01
     -1.973  0.5063E+00  0.7986E+01
     -1.904  0.3169E+00  0.8011E+01
     -1.835  0.3256E+00  0.8032E+01
     -1.766  0.4686E+00  0.8060E+01
     -1.696  0.6136E+00  0.8097E+01
     -1.627  0.7597E+00  0.8144E+01
     -1.558  0.9073E+00  0.8202E+01
     -1.489  0.1074E+01  0.8270E+01
     -1.420  0.1266E+01  0.8351E+01
     -1.350  0.1500E+01  0.8446E+01
     -1.281  0.1843E+01  0.8561E+01
     -1.212  0.2434E+01  0.8708E+01
     -1.143  0.2470E+01  0.8937E+01
     -1.074  0.3299E+01  0.9121E+01
     -1.005  0.4521E+01  0.9385E+01
     -0.935  0.7528E+01  0.9787E+01
     -0.866  0.5420E+01  0.1024E+02
     -0.797  0.4461E+01  0.1058E+02
     -0.728  0.3805E+01  0.1087E+02
     -0.659  0.3428E+01  0.1112E+02
     -0.589  0.3263E+01  0.1135E+02
     -0.520  0.3018E+01  0.1157E+02
     -0.451  0.2741E+01  0.1176E+02
     -0.382  0.2670E+01  0.1195E+02
     -0.313  0.2326E+01  0.1212E+02
     -0.244  0.2254E+01  0.1228E+02
     -0.174  0.2155E+01  0.1243E+02
     -0.105  0.2036E+01  0.1258E+02
     -0.036  0.1901E+01  0.1271E+02
      0.033  0.1797E+01  0.1284E+02
      0.102  0.1735E+01  0.1296E+02
      0.172  0.1694E+01  0.1308E+02
      0.241  0.1659E+01  0.1320E+02
      0.310  0.1574E+01  0.1331E+02
      0.379  0.1549E+01  0.1342E+02
      0.448  0.1537E+01  0.1352E+02
      0.518  0.1514E+01  0.1363E+02
      0.587  0.1458E+01  0.1373E+02
      0.656  0.1380E+01  0.1383E+02
      0.725  0.1301E+01  0.1392E+02
      0.794  0.1241E+01  0.1401E+02
      0.863  0.1196E+01  0.1409E+02
      0.933  0.1166E+01  0.1418E+02
      1.002  0.1139E+01  0.1426E+02
      1.071  0.1118E+01  0.1433E+02
      1.140  0.1121E+01  0.1441E+02
      1.209  0.1151E+01  0.1449E+02
      1.279  0.1214E+01  0.1457E+02
      1.348  0.1297E+01  0.1466E+02
      1.417  0.1371E+01  0.1475E+02
      1.486  0.1925E+01  0.1486E+02
      1.555  0.2570E+01  0.1502E+02
      1.624  0.3098E+01  0.1522E+02
      1.694  0.3019E+01  0.1542E+02
      1.763  0.3684E+01  0.1565E+02
      1.832  0.4691E+01  0.1595E+02
      1.901  0.4699E+01  0.1628E+02
      1.970  0.4644E+01  0.1660E+02
      2.040  0.5177E+01  0.1693E+02
      2.109  0.4759E+01  0.1727E+02
      2.178  0.4120E+01  0.1758E+02
      2.247  0.3973E+01  0.1786E+02
      2.316  0.3851E+01  0.1813E+02
      2.385  0.3828E+01  0.1839E+02
      2.455  0.4071E+01  0.1867E+02
      2.524  0.4428E+01  0.1896E+02
      2.593  0.5002E+01  0.1929E+02
      2.662  0.5375E+01  0.1964E+02
      2.731  0.5205E+01  0.2002E+02
      2.801  0.4875E+01  0.2036E+02
      2.870  0.5401E+01  0.2072E+02
      2.939  0.4752E+01  0.2105E+02
      3.008  0.6407E+01  0.2144E+02
      3.077  0.6624E+01  0.2190E+02
      3.146  0.4835E+01  0.2230E+02
      3.216  0.4794E+01  0.2262E+02
      3.285  0.6794E+01  0.2300E+02
      3.354  0.6146E+01  0.2346E+02
      3.423  0.5632E+01  0.2384E+02
      3.492  0.5288E+01  0.2421E+02
      3.562  0.5480E+01  0.2458E+02
      3.631  0.6367E+01  0.2498E+02
      3.700  0.6744E+01  0.2546E+02
      3.769  0.5354E+01  0.2588E+02
      3.838  0.4405E+01  0.2622E+02
      3.907  0.4223E+01  0.2651E+02
      3.977  0.4287E+01  0.2681E+02
      4.046  0.4809E+01  0.2712E+02
      4.115  0.5383E+01  0.2747E+02
      4.184  0.5468E+01  0.2784E+02
      4.253  0.5229E+01  0.2821E+02
      4.323  0.4911E+01  0.2857E+02
      4.392  0.4842E+01  0.2890E+02
      4.461  0.4469E+01  0.2923E+02
      4.530  0.4408E+01  0.2953E+02
      4.599  0.6377E+01  0.2992E+02
      4.669  0.3441E+01  0.3022E+02
      4.738  0.3085E+01  0.3044E+02
      4.807  0.2853E+01  0.3065E+02
      4.876  0.2458E+01  0.3083E+02
      4.945  0.2230E+01  0.3099E+02
      5.014  0.2175E+01  0.3114E+02
      5.084  0.1786E+01  0.3128E+02
      5.153  0.1748E+01  0.3140E+02
      5.222  0.1510E+01  0.3151E+02
      5.291  0.1341E+01  0.3161E+02
      5.360  0.1235E+01  0.3170E+02
      5.430  0.9387E+00  0.3177E+02
      5.499  0.1092E+01  0.3184E+02
      5.568  0.8499E+00  0.3191E+02
      5.637  0.4629E+00  0.3195E+02
      5.706  0.3487E+00  0.3198E+02
      5.775  0.1115E+00  0.3200E+02
      5.845  0.0000E+00  0.3200E+02
      5.914  0.0000E+00  0.3200E+02
      5.983  0.0000E+00  0.3200E+02
      6.052  0.0000E+00  0.3200E+02
      6.121  0.0000E+00  0.3200E+02
      6.191  0.0000E+00  0.3200E+02
      6.260  0.0000E+00  0.3200E+02
      6.329  0.0000E+00  0.3200E+02
      6.398  0.0000E+00  0.3200E+02
      6.467  0.1383E+00  0.3200E+02
      6.536  0.3254E+00  0.3202E+02
      6.606  0.5220E+00  0.3205E+02
      6.675  0.1311E+01  0.3211E+02
      6.744  0.1313E+01  0.3220E+02
      6.813  0.1306E+01  0.3229E+02
      6.882  0.1339E+01  0.3238E+02
      6.952  0.1425E+01  0.3248E+02
      7.021  0.1649E+01  0.3258E+02
      7.090  0.1838E+01  0.3270E+02
      7.159  0.1957E+01  0.3283E+02
      7.228  0.2180E+01  0.3298E+02
      7.297  0.2804E+01  0.3315E+02
      7.367  0.2724E+01  0.3334E+02
      7.436  0.2840E+01  0.3353E+02
      7.505  0.3120E+01  0.3374E+02
      7.574  0.3530E+01  0.3396E+02
      7.643  0.3813E+01  0.3423E+02
      7.713  0.3937E+01  0.3450E+02
      7.782  0.4297E+01  0.3478E+02
      7.851  0.4617E+01  0.3509E+02
      7.920  0.4807E+01  0.3542E+02
      7.989  0.5956E+01  0.3578E+02
      8.059  0.6030E+01  0.3621E+02
      8.128  0.6149E+01  0.3663E+02
      8.197  0.6066E+01  0.3706E+02
      8.266  0.6798E+01  0.3749E+02
      8.335  0.5230E+01  0.3789E+02
      8.404  0.5011E+01  0.3825E+02
      8.474  0.4491E+01  0.3857E+02
      8.543  0.4374E+01  0.3888E+02
      8.612  0.3936E+01  0.3917E+02
      8.681  0.3721E+01  0.3943E+02
      8.750  0.3831E+01  0.3969E+02
      8.820  0.3582E+01  0.3995E+02
      8.889  0.3279E+01  0.4019E+02
      8.958  0.2862E+01  0.4040E+02
      9.027  0.1883E+01  0.4057E+02
      9.096  0.2722E+01  0.4071E+02
      9.165  0.7605E+01  0.4103E+02
      9.235  0.3318E+01  0.4139E+02
      9.304  0.1993E+01  0.4157E+02
      9.373  0.1607E+01  0.4169E+02
      9.442  0.1425E+01  0.4180E+02
      9.511  0.9356E+00  0.4187E+02
      9.581  0.5408E+00  0.4192E+02
      9.650  0.2900E+00  0.4195E+02
      9.719  0.1430E+00  0.4197E+02
      9.788  0.9508E-01  0.4197E+02
      9.857  0.7756E-01  0.4198E+02
      9.926  0.6244E-01  0.4199E+02
      9.996  0.4971E-01  0.4199E+02
     10.065  0.3938E-01  0.4199E+02
     10.134  0.3125E-01  0.4199E+02
     10.203  0.2405E-01  0.4200E+02
     10.272  0.1756E-01  0.4200E+02
     10.342  0.1177E-01  0.4200E+02
     10.411  0.6776E-02  0.4200E+02
     10.480  0.3101E-02  0.4200E+02
     10.549  0.8445E-03  0.4200E+02
     10.618  0.5917E-05  0.4200E+02
     10.687  0.0000E+00  0.4200E+02
     10.757  0.0000E+00  0.4200E+02
     10.826  0.0000E+00  0.4200E+02
     10.895  0.0000E+00  0.4200E+02
     10.964  0.0000E+00  0.4200E+02
     11.033  0.0000E+00  0.4200E+02
     11.103  0.0000E+00  0.4200E+02
     11.172  0.0000E+00  0.4200E+02
     11.241  0.0000E+00  0.4200E+02
     11.310  0.0000E+00  0.4200E+02
     11.379  0.0000E+00  0.4200E+02
     11.448  0.0000E+00  0.4200E+02
     11.518  0.0000E+00  0.4200E+02
     11.587  0.0000E+00  0.4200E+02
     11.656  0.0000E+00  0.4200E+02
     11.725  0.0000E+00  0.4200E+02
     11.794  0.0000E+00  0.4200E+02
     11.864  0.0000E+00  0.4200E+02
     11.933  0.0000E+00  0.4200E+02
     12.002  0.0000E+00  0.4200E+02
     12.071  0.0000E+00  0.4200E+02
     12.140  0.0000E+00  0.4200E+02
     12.210  0.0000E+00  0.4200E+02
     12.279  0.0000E+00  0.4200E+02
     12.348  0.0000E+00  0.4200E+02
     12.417  0.0000E+00  0.4200E+02
     12.486  0.0000E+00  0.4200E+02
     12.555  0.0000E+00  0.4200E+02
     12.625  0.0000E+00  0.4200E+02
