<?xml version="1.0" encoding="ISO-8859-1"?>
<modeling>
 <generator>
  <i name="program" type="string">vasp </i>
  <i name="version" type="string">5.4.4.18Apr17-6-g9f103f2a35  </i>
  <i name="subversion" type="string">(build Oct  7 2025 21:22:07) complex            parallel </i>
  <i name="platform" type="string">LinuxIFC </i>
  <i name="date" type="string">2025 11 06 </i>
  <i name="time" type="string">02:08:44 </i>
 </generator>
 <incar>
  <i type="string" name="SYSTEM"> Si (diamond)</i>
  <i type="string" name="PREC">accurate</i>
  <i name="EDIFF">      0.00000100</i>
  <i name="ENCUT">    350.00000000</i>
  <i type="int" name="ISMEAR">    -5</i>
  <i type="logical" name="LWAVE"> F  </i>
  <i type="logical" name="LCHARG"> T  </i>
  <v type="int" name="KPOINT_BSE">    -1     0     0     0</v>
 </incar>
 <structure name="primitive_cell" >
  <crystal>
   <varray name="basis" >
    <v>       2.71500000       2.71500000       0.00000000 </v>
    <v>       2.71500000       0.00000000      -2.71500000 </v>
    <v>       0.00000000       2.71500000      -2.71500000 </v>
   </varray>
   <i name="volume">     40.02575175 </i>
   <varray name="rec_basis" >
    <v>       0.18416206       0.18416206       0.18416206 </v>
    <v>       0.18416206      -0.18416206      -0.18416206 </v>
    <v>      -0.18416206       0.18416206      -0.18416206 </v>
   </varray>
  </crystal>
  <varray name="positions" >
   <v>       0.00000000       0.00000000       0.00000000 </v>
   <v>      -0.25000000      -0.25000000      -0.25000000 </v>
  </varray>
 </structure>
 <varray name="primitive_index" >
  <v type="int" >        1 </v>
  <v type="int" >        5 </v>
 </varray>
 <kpoints>
  <generation param="Gamma">
   <v type="int" name="divisions">      10       10       10 </v>
   <v name="usershift">      0.00000000       0.00000000       0.00000000 </v>
   <v name="genvec1">      0.10000000       0.00000000       0.00000000 </v>
   <v name="genvec2">      0.00000000       0.10000000       0.00000000 </v>
   <v name="genvec3">      0.00000000       0.00000000       0.10000000 </v>
   <v name="shift">      0.00000000       0.00000000       0.00000000 </v>
  </generation>
  <varray name="kpointlist" >
   <v>       0.00000000       0.00000000       0.00000000 </v>
   <v>       0.10000000       0.00000000       0.00000000 </v>
   <v>       0.20000000       0.00000000       0.00000000 </v>
   <v>       0.30000000       0.00000000       0.00000000 </v>
   <v>       0.40000000       0.00000000       0.00000000 </v>
   <v>       0.50000000       0.00000000       0.00000000 </v>
   <v>       0.10000000       0.10000000       0.00000000 </v>
   <v>       0.20000000       0.10000000       0.00000000 </v>
   <v>       0.30000000       0.10000000       0.00000000 </v>
   <v>       0.40000000       0.10000000       0.00000000 </v>
   <v>       0.50000000       0.10000000       0.00000000 </v>
   <v>       0.20000000       0.20000000       0.00000000 </v>
   <v>       0.30000000       0.20000000       0.00000000 </v>
   <v>       0.40000000       0.20000000       0.00000000 </v>
   <v>       0.50000000       0.20000000       0.00000000 </v>
   <v>       0.30000000       0.30000000       0.00000000 </v>
   <v>       0.40000000       0.30000000       0.00000000 </v>
   <v>       0.50000000       0.30000000       0.00000000 </v>
   <v>       0.40000000       0.40000000       0.00000000 </v>
   <v>       0.50000000       0.40000000       0.00000000 </v>
   <v>       0.50000000       0.50000000       0.00000000 </v>
   <v>       0.10000000       0.10000000       0.10000000 </v>
   <v>       0.20000000       0.10000000       0.10000000 </v>
   <v>       0.30000000       0.10000000       0.10000000 </v>
   <v>       0.40000000       0.10000000       0.10000000 </v>
   <v>       0.50000000       0.10000000       0.10000000 </v>
   <v>       0.20000000       0.20000000       0.10000000 </v>
   <v>       0.30000000       0.20000000       0.10000000 </v>
   <v>       0.40000000       0.20000000       0.10000000 </v>
   <v>       0.50000000       0.20000000       0.10000000 </v>
   <v>       0.30000000       0.30000000       0.10000000 </v>
   <v>       0.40000000       0.30000000       0.10000000 </v>
   <v>       0.50000000       0.30000000       0.10000000 </v>
   <v>       0.40000000       0.40000000       0.10000000 </v>
   <v>       0.50000000       0.40000000       0.10000000 </v>
   <v>       0.50000000       0.50000000       0.10000000 </v>
   <v>       0.20000000       0.20000000       0.20000000 </v>
   <v>       0.30000000       0.20000000       0.20000000 </v>
   <v>       0.40000000       0.20000000       0.20000000 </v>
   <v>       0.50000000       0.20000000       0.20000000 </v>
   <v>       0.30000000       0.30000000       0.20000000 </v>
   <v>       0.40000000       0.30000000       0.20000000 </v>
   <v>       0.50000000       0.30000000       0.20000000 </v>
   <v>       0.40000000       0.40000000       0.20000000 </v>
   <v>       0.50000000       0.40000000       0.20000000 </v>
   <v>       0.50000000       0.50000000       0.20000000 </v>
   <v>       0.30000000       0.30000000       0.30000000 </v>
   <v>       0.40000000       0.30000000       0.30000000 </v>
   <v>       0.50000000       0.30000000       0.30000000 </v>
   <v>       0.40000000       0.40000000       0.30000000 </v>
   <v>       0.50000000       0.40000000       0.30000000 </v>
   <v>       0.50000000       0.50000000       0.30000000 </v>
   <v>       0.40000000       0.40000000       0.40000000 </v>
   <v>       0.50000000       0.40000000       0.40000000 </v>
   <v>       0.50000000       0.50000000       0.40000000 </v>
   <v>       0.50000000       0.50000000       0.50000000 </v>
  </varray>
  <varray name="weights" >
   <v>       0.00100000 </v>
   <v>       0.00600000 </v>
   <v>       0.00600000 </v>
   <v>       0.00600000 </v>
   <v>       0.00600000 </v>
   <v>       0.00300000 </v>
   <v>       0.01200000 </v>
   <v>       0.02400000 </v>
   <v>       0.02400000 </v>
   <v>       0.02400000 </v>
   <v>       0.01200000 </v>
   <v>       0.01200000 </v>
   <v>       0.02400000 </v>
   <v>       0.02400000 </v>
   <v>       0.01200000 </v>
   <v>       0.01200000 </v>
   <v>       0.02400000 </v>
   <v>       0.01200000 </v>
   <v>       0.01200000 </v>
   <v>       0.01200000 </v>
   <v>       0.00300000 </v>
   <v>       0.00800000 </v>
   <v>       0.02400000 </v>
   <v>       0.02400000 </v>
   <v>       0.02400000 </v>
   <v>       0.01200000 </v>
   <v>       0.02400000 </v>
   <v>       0.04800000 </v>
   <v>       0.04800000 </v>
   <v>       0.02400000 </v>
   <v>       0.02400000 </v>
   <v>       0.04800000 </v>
   <v>       0.02400000 </v>
   <v>       0.02400000 </v>
   <v>       0.02400000 </v>
   <v>       0.00600000 </v>
   <v>       0.00800000 </v>
   <v>       0.02400000 </v>
   <v>       0.02400000 </v>
   <v>       0.01200000 </v>
   <v>       0.02400000 </v>
   <v>       0.04800000 </v>
   <v>       0.02400000 </v>
   <v>       0.02400000 </v>
   <v>       0.02400000 </v>
   <v>       0.00600000 </v>
   <v>       0.00800000 </v>
   <v>       0.02400000 </v>
   <v>       0.01200000 </v>
   <v>       0.02400000 </v>
   <v>       0.02400000 </v>
   <v>       0.00600000 </v>
   <v>       0.00800000 </v>
   <v>       0.01200000 </v>
   <v>       0.00600000 </v>
   <v>       0.00100000 </v>
  </varray>
  <varray name="tetrahedronlist"  type="int" >
   <v type="int" >       12        1        2        2        7 </v>
   <v type="int" >       12        2        2        7        7 </v>
   <v type="int" >       12        2        7        7       22 </v>
   <v type="int" >       12        2        3        7        8 </v>
   <v type="int" >       12        2        7        7        8 </v>
   <v type="int" >       12        7        7        8       22 </v>
   <v type="int" >       12        3        7        8        8 </v>
   <v type="int" >       24        7        8        8       23 </v>
   <v type="int" >       24        7        8       22       23 </v>
   <v type="int" >       12        3        4        8        9 </v>
   <v type="int" >       12        3        8        8        9 </v>
   <v type="int" >       12        8        8        9       23 </v>
   <v type="int" >       12        4        8        9        9 </v>
   <v type="int" >       12        8        9        9       24 </v>
   <v type="int" >       12        8        9       23       24 </v>
   <v type="int" >       12        4        5        9       10 </v>
   <v type="int" >       12        4        9        9       10 </v>
   <v type="int" >       12        9        9       10       24 </v>
   <v type="int" >       12        5        9       10       10 </v>
   <v type="int" >       12        9       10       10       25 </v>
   <v type="int" >       12        9       10       24       25 </v>
   <v type="int" >       12        5        6       10       11 </v>
   <v type="int" >       12        5       10       10       11 </v>
   <v type="int" >       12       10       10       11       25 </v>
   <v type="int" >       12        6       10       11       11 </v>
   <v type="int" >       12       10       11       11       26 </v>
   <v type="int" >       12       10       11       25       26 </v>
   <v type="int" >       12        7        8       12       22 </v>
   <v type="int" >       12        8       12       22       23 </v>
   <v type="int" >       12       12       22       23       27 </v>
   <v type="int" >       12        8        9       13       23 </v>
   <v type="int" >       12        8       12       13       23 </v>
   <v type="int" >       12       12       13       23       27 </v>
   <v type="int" >       12        9       13       23       24 </v>
   <v type="int" >       12       13       23       24       28 </v>
   <v type="int" >       12       13       23       27       28 </v>
   <v type="int" >       12        9       10       14       24 </v>
   <v type="int" >       12        9       13       14       24 </v>
   <v type="int" >       12       13       14       24       28 </v>
   <v type="int" >       12       10       14       24       25 </v>
   <v type="int" >       12       14       24       25       29 </v>
   <v type="int" >       12       14       24       28       29 </v>
   <v type="int" >       12       10       11       15       25 </v>
   <v type="int" >       12       10       14       15       25 </v>
   <v type="int" >       12       14       15       25       29 </v>
   <v type="int" >       12       11       15       25       26 </v>
   <v type="int" >       12       15       25       26       30 </v>
   <v type="int" >       12       15       25       29       30 </v>
   <v type="int" >       12       10       11       14       26 </v>
   <v type="int" >       12       11       14       15       26 </v>
   <v type="int" >       12       14       15       26       30 </v>
   <v type="int" >       12       10       14       25       26 </v>
   <v type="int" >       12       14       25       26       29 </v>
   <v type="int" >       12       14       26       29       30 </v>
   <v type="int" >       12        9       10       13       25 </v>
   <v type="int" >       12       10       13       14       25 </v>
   <v type="int" >       12       13       14       25       29 </v>
   <v type="int" >       12        9       13       24       25 </v>
   <v type="int" >       12       13       24       25       28 </v>
   <v type="int" >       12       13       25       28       29 </v>
   <v type="int" >       12        8        9       12       24 </v>
   <v type="int" >       12        9       12       13       24 </v>
   <v type="int" >       12       12       13       24       28 </v>
   <v type="int" >       12        8       12       23       24 </v>
   <v type="int" >       12       12       23       24       27 </v>
   <v type="int" >       12       12       24       27       28 </v>
   <v type="int" >       12        8        8       12       23 </v>
   <v type="int" >       12        8       12       23       27 </v>
   <v type="int" >       12        8       22       23       23 </v>
   <v type="int" >       12        8       23       23       27 </v>
   <v type="int" >       12        2        3        7       22 </v>
   <v type="int" >       12        3        7        8       22 </v>
   <v type="int" >       12        3        8       22       23 </v>
   <v type="int" >       12       12       13       16       27 </v>
   <v type="int" >       12       13       16       27       28 </v>
   <v type="int" >       12       16       27       28       31 </v>
   <v type="int" >       12       13       14       17       28 </v>
   <v type="int" >       12       13       16       17       28 </v>
   <v type="int" >       12       16       17       28       31 </v>
   <v type="int" >       12       14       17       28       29 </v>
   <v type="int" >       12       17       28       29       32 </v>
   <v type="int" >       12       17       28       31       32 </v>
   <v type="int" >       12       14       15       18       29 </v>
   <v type="int" >       12       14       17       18       29 </v>
   <v type="int" >       12       17       18       29       32 </v>
   <v type="int" >       12       15       18       29       30 </v>
   <v type="int" >       12       18       29       30       33 </v>
   <v type="int" >       12       18       29       32       33 </v>
   <v type="int" >       12       14       15       17       30 </v>
   <v type="int" >       12       15       17       18       30 </v>
   <v type="int" >       12       17       18       30       33 </v>
   <v type="int" >       12       14       17       29       30 </v>
   <v type="int" >       12       17       29       30       32 </v>
   <v type="int" >       12       17       30       32       33 </v>
   <v type="int" >       12       13       14       16       29 </v>
   <v type="int" >       12       14       16       17       29 </v>
   <v type="int" >       12       16       17       29       32 </v>
   <v type="int" >       12       13       16       28       29 </v>
   <v type="int" >       12       16       28       29       31 </v>
   <v type="int" >       12       16       29       31       32 </v>
   <v type="int" >       12       12       13       13       28 </v>
   <v type="int" >       12       13       13       16       28 </v>
   <v type="int" >       12       13       16       28       31 </v>
   <v type="int" >       12       12       13       27       28 </v>
   <v type="int" >       12       13       27       28       28 </v>
   <v type="int" >       12       13       28       28       31 </v>
   <v type="int" >       12        8        9       12       27 </v>
   <v type="int" >       12        9       12       13       27 </v>
   <v type="int" >       12        9       13       27       28 </v>
   <v type="int" >       12        8        9       23       27 </v>
   <v type="int" >       12        9       23       24       27 </v>
   <v type="int" >       12        9       24       27       28 </v>
   <v type="int" >       12        3        4        8       23 </v>
   <v type="int" >       12        4        8        9       23 </v>
   <v type="int" >       12        4        9       23       24 </v>
   <v type="int" >       12       16       17       19       31 </v>
   <v type="int" >       12       17       19       31       32 </v>
   <v type="int" >       12       19       31       32       34 </v>
   <v type="int" >       12       17       18       20       32 </v>
   <v type="int" >       12       17       19       20       32 </v>
   <v type="int" >       12       19       20       32       34 </v>
   <v type="int" >       12       18       20       32       33 </v>
   <v type="int" >       12       20       32       33       35 </v>
   <v type="int" >       12       20       32       34       35 </v>
   <v type="int" >       12       17       18       19       33 </v>
   <v type="int" >       12       18       19       20       33 </v>
   <v type="int" >       12       19       20       33       35 </v>
   <v type="int" >       12       17       19       32       33 </v>
   <v type="int" >       12       19       32       33       34 </v>
   <v type="int" >       12       19       33       34       35 </v>
   <v type="int" >       12       16       17       17       32 </v>
   <v type="int" >       12       17       17       19       32 </v>
   <v type="int" >       12       17       19       32       34 </v>
   <v type="int" >       12       16       17       31       32 </v>
   <v type="int" >       12       17       31       32       32 </v>
   <v type="int" >       12       17       32       32       34 </v>
   <v type="int" >       12       13       14       16       31 </v>
   <v type="int" >       12       14       16       17       31 </v>
   <v type="int" >       12       14       17       31       32 </v>
   <v type="int" >       12       13       14       28       31 </v>
   <v type="int" >       12       14       28       29       31 </v>
   <v type="int" >       12       14       29       31       32 </v>
   <v type="int" >       12        9       10       13       28 </v>
   <v type="int" >       12       10       13       14       28 </v>
   <v type="int" >       12       10       14       28       29 </v>
   <v type="int" >       12        9       10       24       28 </v>
   <v type="int" >       12       10       24       25       28 </v>
   <v type="int" >       12       10       25       28       29 </v>
   <v type="int" >       12        4        5        9       24 </v>
   <v type="int" >       12        5        9       10       24 </v>
   <v type="int" >       12        5       10       24       25 </v>
   <v type="int" >       12       19       20       21       34 </v>
   <v type="int" >       12       20       21       34       35 </v>
   <v type="int" >       12       21       34       35       36 </v>
   <v type="int" >       12       19       20       20       35 </v>
   <v type="int" >       12       20       20       21       35 </v>
   <v type="int" >       12       20       21       35       36 </v>
   <v type="int" >       12       19       20       34       35 </v>
   <v type="int" >       12       20       34       35       35 </v>
   <v type="int" >       12       20       35       35       36 </v>
   <v type="int" >       12       17       18       19       34 </v>
   <v type="int" >       12       18       19       20       34 </v>
   <v type="int" >       12       18       20       34       35 </v>
   <v type="int" >       12       17       18       32       34 </v>
   <v type="int" >       12       18       32       33       34 </v>
   <v type="int" >       12       18       33       34       35 </v>
   <v type="int" >       12       14       15       17       32 </v>
   <v type="int" >       12       15       17       18       32 </v>
   <v type="int" >       12       15       18       32       33 </v>
   <v type="int" >       12       14       15       29       32 </v>
   <v type="int" >       12       15       29       30       32 </v>
   <v type="int" >       12       15       30       32       33 </v>
   <v type="int" >       12       10       11       14       29 </v>
   <v type="int" >       12       11       14       15       29 </v>
   <v type="int" >       12       11       15       29       30 </v>
   <v type="int" >       12       10       11       25       29 </v>
   <v type="int" >       12       11       25       26       29 </v>
   <v type="int" >       12       11       26       29       30 </v>
   <v type="int" >       12        5        6       10       25 </v>
   <v type="int" >       12        6       10       11       25 </v>
   <v type="int" >       12        6       11       25       26 </v>
   <v type="int" >       12       19       20       21       36 </v>
   <v type="int" >       12       19       20       35       36 </v>
   <v type="int" >       12       19       34       35       36 </v>
   <v type="int" >       12       17       18       20       35 </v>
   <v type="int" >       12       17       19       20       35 </v>
   <v type="int" >       12       17       19       34       35 </v>
   <v type="int" >       12       17       18       33       35 </v>
   <v type="int" >       12       17       32       33       35 </v>
   <v type="int" >       12       17       32       34       35 </v>
   <v type="int" >       12       14       15       18       33 </v>
   <v type="int" >       12       14       17       18       33 </v>
   <v type="int" >       12       14       17       32       33 </v>
   <v type="int" >       12       14       15       30       33 </v>
   <v type="int" >       12       14       29       30       33 </v>
   <v type="int" >       12       14       29       32       33 </v>
   <v type="int" >       12       10       11       15       30 </v>
   <v type="int" >       12       10       14       15       30 </v>
   <v type="int" >       12       10       14       29       30 </v>
   <v type="int" >       12       10       11       26       30 </v>
   <v type="int" >       12       10       25       26       30 </v>
   <v type="int" >       12       10       25       29       30 </v>
   <v type="int" >       12        5        6       11       26 </v>
   <v type="int" >       12        5       10       11       26 </v>
   <v type="int" >       12        5       10       25       26 </v>
   <v type="int" >       12       16       17       19       34 </v>
   <v type="int" >       12       16       17       32       34 </v>
   <v type="int" >       12       16       31       32       34 </v>
   <v type="int" >       12       13       14       17       32 </v>
   <v type="int" >       12       13       16       17       32 </v>
   <v type="int" >       12       13       16       31       32 </v>
   <v type="int" >       12       13       14       29       32 </v>
   <v type="int" >       12       13       28       29       32 </v>
   <v type="int" >       12       13       28       31       32 </v>
   <v type="int" >       12        9       10       14       29 </v>
   <v type="int" >       12        9       13       14       29 </v>
   <v type="int" >       12        9       13       28       29 </v>
   <v type="int" >       12        9       10       25       29 </v>
   <v type="int" >       12        9       24       25       29 </v>
   <v type="int" >       12        9       24       28       29 </v>
   <v type="int" >       12        4        5       10       25 </v>
   <v type="int" >       12        4        9       10       25 </v>
   <v type="int" >       12        4        9       24       25 </v>
   <v type="int" >       12       12       13       16       31 </v>
   <v type="int" >       12       12       13       28       31 </v>
   <v type="int" >       12       12       27       28       31 </v>
   <v type="int" >       12        8        9       13       28 </v>
   <v type="int" >       12        8       12       13       28 </v>
   <v type="int" >       12        8       12       27       28 </v>
   <v type="int" >       12        8        9       24       28 </v>
   <v type="int" >       12        8       23       24       28 </v>
   <v type="int" >       12        8       23       27       28 </v>
   <v type="int" >       12        3        4        9       24 </v>
   <v type="int" >       12        3        8        9       24 </v>
   <v type="int" >       12        3        8       23       24 </v>
   <v type="int" >       12        7        8       12       27 </v>
   <v type="int" >       12        7        8       23       27 </v>
   <v type="int" >       12        7       22       23       27 </v>
   <v type="int" >       12        2        3        8       23 </v>
   <v type="int" >       12        2        7        8       23 </v>
   <v type="int" >       12        2        7       22       23 </v>
   <v type="int" >       12        1        2        7       22 </v>
   <v type="int" >       12       22       23       23       27 </v>
   <v type="int" >       12       23       23       27       27 </v>
   <v type="int" >       12       23       27       27       37 </v>
   <v type="int" >       12       23       24       27       28 </v>
   <v type="int" >       12       23       27       27       28 </v>
   <v type="int" >       12       27       27       28       37 </v>
   <v type="int" >       12       24       27       28       28 </v>
   <v type="int" >       24       27       28       28       38 </v>
   <v type="int" >       24       27       28       37       38 </v>
   <v type="int" >       12       24       25       28       29 </v>
   <v type="int" >       12       24       28       28       29 </v>
   <v type="int" >       12       28       28       29       38 </v>
   <v type="int" >       12       25       28       29       29 </v>
   <v type="int" >       12       28       29       29       39 </v>
   <v type="int" >       12       28       29       38       39 </v>
   <v type="int" >       12       25       26       29       30 </v>
   <v type="int" >       12       25       29       29       30 </v>
   <v type="int" >       12       29       29       30       39 </v>
   <v type="int" >       12       26       29       30       30 </v>
   <v type="int" >       12       29       30       30       40 </v>
   <v type="int" >       12       29       30       39       40 </v>
   <v type="int" >       12       27       28       31       37 </v>
   <v type="int" >       12       28       31       37       38 </v>
   <v type="int" >       12       31       37       38       41 </v>
   <v type="int" >       12       28       29       32       38 </v>
   <v type="int" >       12       28       31       32       38 </v>
   <v type="int" >       12       31       32       38       41 </v>
   <v type="int" >       12       29       32       38       39 </v>
   <v type="int" >       12       32       38       39       42 </v>
   <v type="int" >       12       32       38       41       42 </v>
   <v type="int" >       12       29       30       33       39 </v>
   <v type="int" >       12       29       32       33       39 </v>
   <v type="int" >       12       32       33       39       42 </v>
   <v type="int" >       12       30       33       39       40 </v>
   <v type="int" >       12       33       39       40       43 </v>
   <v type="int" >       12       33       39       42       43 </v>
   <v type="int" >       12       29       30       32       40 </v>
   <v type="int" >       12       30       32       33       40 </v>
   <v type="int" >       12       32       33       40       43 </v>
   <v type="int" >       12       29       32       39       40 </v>
   <v type="int" >       12       32       39       40       42 </v>
   <v type="int" >       12       32       40       42       43 </v>
   <v type="int" >       12       28       29       31       39 </v>
   <v type="int" >       12       29       31       32       39 </v>
   <v type="int" >       12       31       32       39       42 </v>
   <v type="int" >       12       28       31       38       39 </v>
   <v type="int" >       12       31       38       39       41 </v>
   <v type="int" >       12       31       39       41       42 </v>
   <v type="int" >       12       28       28       31       38 </v>
   <v type="int" >       12       28       31       38       41 </v>
   <v type="int" >       12       28       37       38       38 </v>
   <v type="int" >       12       28       38       38       41 </v>
   <v type="int" >       12       23       24       27       37 </v>
   <v type="int" >       12       24       27       28       37 </v>
   <v type="int" >       12       24       28       37       38 </v>
   <v type="int" >       12       31       32       34       41 </v>
   <v type="int" >       12       32       34       41       42 </v>
   <v type="int" >       12       34       41       42       44 </v>
   <v type="int" >       12       32       33       35       42 </v>
   <v type="int" >       12       32       34       35       42 </v>
   <v type="int" >       12       34       35       42       44 </v>
   <v type="int" >       12       33       35       42       43 </v>
   <v type="int" >       12       35       42       43       45 </v>
   <v type="int" >       12       35       42       44       45 </v>
   <v type="int" >       12       32       33       34       43 </v>
   <v type="int" >       12       33       34       35       43 </v>
   <v type="int" >       12       34       35       43       45 </v>
   <v type="int" >       12       32       34       42       43 </v>
   <v type="int" >       12       34       42       43       44 </v>
   <v type="int" >       12       34       43       44       45 </v>
   <v type="int" >       12       31       32       32       42 </v>
   <v type="int" >       12       32       32       34       42 </v>
   <v type="int" >       12       32       34       42       44 </v>
   <v type="int" >       12       31       32       41       42 </v>
   <v type="int" >       12       32       41       42       42 </v>
   <v type="int" >       12       32       42       42       44 </v>
   <v type="int" >       12       28       29       31       41 </v>
   <v type="int" >       12       29       31       32       41 </v>
   <v type="int" >       12       29       32       41       42 </v>
   <v type="int" >       12       28       29       38       41 </v>
   <v type="int" >       12       29       38       39       41 </v>
   <v type="int" >       12       29       39       41       42 </v>
   <v type="int" >       12       24       25       28       38 </v>
   <v type="int" >       12       25       28       29       38 </v>
   <v type="int" >       12       25       29       38       39 </v>
   <v type="int" >       12       34       35       36       44 </v>
   <v type="int" >       12       35       36       44       45 </v>
   <v type="int" >       12       36       44       45       46 </v>
   <v type="int" >       12       34       35       35       45 </v>
   <v type="int" >       12       35       35       36       45 </v>
   <v type="int" >       12       35       36       45       46 </v>
   <v type="int" >       12       34       35       44       45 </v>
   <v type="int" >       12       35       44       45       45 </v>
   <v type="int" >       12       35       45       45       46 </v>
   <v type="int" >       12       32       33       34       44 </v>
   <v type="int" >       12       33       34       35       44 </v>
   <v type="int" >       12       33       35       44       45 </v>
   <v type="int" >       12       32       33       42       44 </v>
   <v type="int" >       12       33       42       43       44 </v>
   <v type="int" >       12       33       43       44       45 </v>
   <v type="int" >       12       29       30       32       42 </v>
   <v type="int" >       12       30       32       33       42 </v>
   <v type="int" >       12       30       33       42       43 </v>
   <v type="int" >       12       29       30       39       42 </v>
   <v type="int" >       12       30       39       40       42 </v>
   <v type="int" >       12       30       40       42       43 </v>
   <v type="int" >       12       25       26       29       39 </v>
   <v type="int" >       12       26       29       30       39 </v>
   <v type="int" >       12       26       30       39       40 </v>
   <v type="int" >       12       34       35       36       46 </v>
   <v type="int" >       12       34       35       45       46 </v>
   <v type="int" >       12       34       44       45       46 </v>
   <v type="int" >       12       32       33       35       45 </v>
   <v type="int" >       12       32       34       35       45 </v>
   <v type="int" >       12       32       34       44       45 </v>
   <v type="int" >       12       32       33       43       45 </v>
   <v type="int" >       12       32       42       43       45 </v>
   <v type="int" >       12       32       42       44       45 </v>
   <v type="int" >       12       29       30       33       43 </v>
   <v type="int" >       12       29       32       33       43 </v>
   <v type="int" >       12       29       32       42       43 </v>
   <v type="int" >       12       29       30       40       43 </v>
   <v type="int" >       12       29       39       40       43 </v>
   <v type="int" >       12       29       39       42       43 </v>
   <v type="int" >       12       25       26       30       40 </v>
   <v type="int" >       12       25       29       30       40 </v>
   <v type="int" >       12       25       29       39       40 </v>
   <v type="int" >       12       31       32       34       44 </v>
   <v type="int" >       12       31       32       42       44 </v>
   <v type="int" >       12       31       41       42       44 </v>
   <v type="int" >       12       28       29       32       42 </v>
   <v type="int" >       12       28       31       32       42 </v>
   <v type="int" >       12       28       31       41       42 </v>
   <v type="int" >       12       28       29       39       42 </v>
   <v type="int" >       12       28       38       39       42 </v>
   <v type="int" >       12       28       38       41       42 </v>
   <v type="int" >       12       24       25       29       39 </v>
   <v type="int" >       12       24       28       29       39 </v>
   <v type="int" >       12       24       28       38       39 </v>
   <v type="int" >       12       27       28       31       41 </v>
   <v type="int" >       12       27       28       38       41 </v>
   <v type="int" >       12       27       37       38       41 </v>
   <v type="int" >       12       23       24       28       38 </v>
   <v type="int" >       12       23       27       28       38 </v>
   <v type="int" >       12       23       27       37       38 </v>
   <v type="int" >       12       22       23       27       37 </v>
   <v type="int" >       12       37       38       38       41 </v>
   <v type="int" >       12       38       38       41       41 </v>
   <v type="int" >       12       38       41       41       47 </v>
   <v type="int" >       12       38       39       41       42 </v>
   <v type="int" >       12       38       41       41       42 </v>
   <v type="int" >       12       41       41       42       47 </v>
   <v type="int" >       12       39       41       42       42 </v>
   <v type="int" >       24       41       42       42       48 </v>
   <v type="int" >       24       41       42       47       48 </v>
   <v type="int" >       12       39       40       42       43 </v>
   <v type="int" >       12       39       42       42       43 </v>
   <v type="int" >       12       42       42       43       48 </v>
   <v type="int" >       12       40       42       43       43 </v>
   <v type="int" >       12       42       43       43       49 </v>
   <v type="int" >       12       42       43       48       49 </v>
   <v type="int" >       12       41       42       44       47 </v>
   <v type="int" >       12       42       44       47       48 </v>
   <v type="int" >       12       44       47       48       50 </v>
   <v type="int" >       12       42       43       45       48 </v>
   <v type="int" >       12       42       44       45       48 </v>
   <v type="int" >       12       44       45       48       50 </v>
   <v type="int" >       12       43       45       48       49 </v>
   <v type="int" >       12       45       48       49       51 </v>
   <v type="int" >       12       45       48       50       51 </v>
   <v type="int" >       12       42       43       44       49 </v>
   <v type="int" >       12       43       44       45       49 </v>
   <v type="int" >       12       44       45       49       51 </v>
   <v type="int" >       12       42       44       48       49 </v>
   <v type="int" >       12       44       48       49       50 </v>
   <v type="int" >       12       44       49       50       51 </v>
   <v type="int" >       12       42       42       44       48 </v>
   <v type="int" >       12       42       44       48       50 </v>
   <v type="int" >       12       42       47       48       48 </v>
   <v type="int" >       12       42       48       48       50 </v>
   <v type="int" >       12       38       39       41       47 </v>
   <v type="int" >       12       39       41       42       47 </v>
   <v type="int" >       12       39       42       47       48 </v>
   <v type="int" >       12       44       45       46       50 </v>
   <v type="int" >       12       45       46       50       51 </v>
   <v type="int" >       12       46       50       51       52 </v>
   <v type="int" >       12       44       45       45       51 </v>
   <v type="int" >       12       45       45       46       51 </v>
   <v type="int" >       12       45       46       51       52 </v>
   <v type="int" >       12       44       45       50       51 </v>
   <v type="int" >       12       45       50       51       51 </v>
   <v type="int" >       12       45       51       51       52 </v>
   <v type="int" >       12       42       43       44       50 </v>
   <v type="int" >       12       43       44       45       50 </v>
   <v type="int" >       12       43       45       50       51 </v>
   <v type="int" >       12       42       43       48       50 </v>
   <v type="int" >       12       43       48       49       50 </v>
   <v type="int" >       12       43       49       50       51 </v>
   <v type="int" >       12       39       40       42       48 </v>
   <v type="int" >       12       40       42       43       48 </v>
   <v type="int" >       12       40       43       48       49 </v>
   <v type="int" >       12       44       45       46       52 </v>
   <v type="int" >       12       44       45       51       52 </v>
   <v type="int" >       12       44       50       51       52 </v>
   <v type="int" >       12       42       43       45       51 </v>
   <v type="int" >       12       42       44       45       51 </v>
   <v type="int" >       12       42       44       50       51 </v>
   <v type="int" >       12       42       43       49       51 </v>
   <v type="int" >       12       42       48       49       51 </v>
   <v type="int" >       12       42       48       50       51 </v>
   <v type="int" >       12       39       40       43       49 </v>
   <v type="int" >       12       39       42       43       49 </v>
   <v type="int" >       12       39       42       48       49 </v>
   <v type="int" >       12       41       42       44       50 </v>
   <v type="int" >       12       41       42       48       50 </v>
   <v type="int" >       12       41       47       48       50 </v>
   <v type="int" >       12       38       39       42       48 </v>
   <v type="int" >       12       38       41       42       48 </v>
   <v type="int" >       12       38       41       47       48 </v>
   <v type="int" >       12       37       38       41       47 </v>
   <v type="int" >       12       47       48       48       50 </v>
   <v type="int" >       12       48       48       50       50 </v>
   <v type="int" >       12       48       50       50       53 </v>
   <v type="int" >       12       48       49       50       51 </v>
   <v type="int" >       12       48       50       50       51 </v>
   <v type="int" >       12       50       50       51       53 </v>
   <v type="int" >       12       49       50       51       51 </v>
   <v type="int" >       24       50       51       51       54 </v>
   <v type="int" >       24       50       51       53       54 </v>
   <v type="int" >       12       50       51       52       53 </v>
   <v type="int" >       12       51       52       53       54 </v>
   <v type="int" >       12       52       53       54       55 </v>
   <v type="int" >       12       51       51       52       54 </v>
   <v type="int" >       12       51       52       54       55 </v>
   <v type="int" >       12       51       53       54       54 </v>
   <v type="int" >       12       51       54       54       55 </v>
   <v type="int" >       12       48       49       50       53 </v>
   <v type="int" >       12       49       50       51       53 </v>
   <v type="int" >       12       49       51       53       54 </v>
   <v type="int" >       12       50       51       52       55 </v>
   <v type="int" >       12       50       51       54       55 </v>
   <v type="int" >       12       50       53       54       55 </v>
   <v type="int" >       12       48       49       51       54 </v>
   <v type="int" >       12       48       50       51       54 </v>
   <v type="int" >       12       48       50       53       54 </v>
   <v type="int" >       12       47       48       50       53 </v>
   <v type="int" >       12       53       54       54       55 </v>
   <v type="int" >       12       54       54       55       55 </v>
   <v type="int" >       12       54       55       55       56 </v>
   <v type="int" >       12       53       54       55       56 </v>
  </varray>
  <i name="volumeweight">      0.00016667 </i>
 </kpoints>
 <parameters>
  <separator name="general" >
   <i type="string" name="SYSTEM">Si (diamond)</i>
   <i type="logical" name="LCOMPAT"> F  </i>
  </separator>
  <separator name="electronic" >
   <i type="string" name="PREC">accura</i>
   <i name="ENMAX">    350.00000000</i>
   <i name="ENAUG">    322.06900000</i>
   <i name="EDIFF">      0.00000100</i>
   <i type="int" name="IALGO">    38</i>
   <i type="int" name="IWAVPR">    10</i>
   <i type="int" name="NBANDS">    21</i>
   <i name="NELECT">     32.00000000</i>
   <i type="int" name="TURBO">     0</i>
   <i type="int" name="IRESTART">     0</i>
   <i type="int" name="NREBOOT">     0</i>
   <i type="int" name="NMIN">     0</i>
   <i name="EREF">      0.00000000</i>
   <separator name="electronic smearing" >
    <i type="int" name="ISMEAR">    -5</i>
    <i name="SIGMA">      0.20000000</i>
    <i name="KSPACING">      0.50000000</i>
    <i type="logical" name="KGAMMA"> T  </i>
   </separator>
   <separator name="electronic projectors" >
    <i type="logical" name="LREAL"> F  </i>
    <v name="ROPT">      0.00000000</v>
    <i type="int" name="LMAXPAW">  -100</i>
    <i type="int" name="LMAXMIX">     2</i>
    <i type="logical" name="NLSPLINE"> F  </i>
   </separator>
   <separator name="electronic startup" >
    <i type="int" name="ISTART">     0</i>
    <i type="int" name="ICHARG">     2</i>
    <i type="int" name="INIWAV">     1</i>
   </separator>
   <separator name="electronic spin" >
    <i type="int" name="ISPIN">     1</i>
    <i type="logical" name="LNONCOLLINEAR"> F  </i>
    <v name="MAGMOM">      1.00000000      1.00000000      1.00000000      1.00000000      1.00000000      1.00000000      1.00000000      1.00000000</v>
    <i name="NUPDOWN">     -1.00000000</i>
    <i type="logical" name="LSORBIT"> F  </i>
    <v name="SAXIS">      0.00000000      0.00000000      1.00000000</v>
    <i type="logical" name="LSPIRAL"> F  </i>
    <v name="QSPIRAL">      0.00000000      0.00000000      0.00000000</v>
    <i type="logical" name="LZEROZ"> F  </i>
   </separator>
   <separator name="electronic exchange-correlation" >
    <i type="logical" name="LASPH"> F  </i>
    <i type="logical" name="LMETAGGA"> F  </i>
   </separator>
   <separator name="electronic convergence" >
    <i type="int" name="NELM">    60</i>
    <i type="int" name="NELMDL">    -5</i>
    <i type="int" name="NELMIN">     2</i>
    <i name="ENINI">    350.00000000</i>
    <separator name="electronic convergence detail" >
     <i type="logical" name="LDIAG"> T  </i>
     <i type="logical" name="LSUBROT"> F  </i>
     <i name="WEIMIN">      0.00000000</i>
     <i name="EBREAK">      0.00000001</i>
     <i name="DEPER">      0.30000000</i>
     <i type="int" name="NRMM">     4</i>
     <i name="TIME">      0.40000000</i>
    </separator>
   </separator>
   <separator name="electronic mixer" >
    <i name="AMIX">      0.40000000</i>
    <i name="BMIX">      1.00000000</i>
    <i name="AMIN">      0.10000000</i>
    <i name="AMIX_MAG">      1.60000000</i>
    <i name="BMIX_MAG">      1.00000000</i>
    <separator name="electronic mixer details" >
     <i type="int" name="IMIX">     4</i>
     <i type="logical" name="MIXFIRST"> F  </i>
     <i type="int" name="MAXMIX">   -45</i>
     <i name="WC">    100.00000000</i>
     <i type="int" name="INIMIX">     1</i>
     <i type="int" name="MIXPRE">     1</i>
     <i type="int" name="MREMOVE">     5</i>
    </separator>
   </separator>
   <separator name="electronic dipolcorrection" >
    <i type="logical" name="LDIPOL"> F  </i>
    <i type="logical" name="LMONO"> F  </i>
    <i type="int" name="IDIPOL">     0</i>
    <i name="EPSILON">      1.00000000</i>
    <v name="DIPOL">   -100.00000000   -100.00000000   -100.00000000</v>
    <i name="EFIELD">      0.00000000</i>
   </separator>
  </separator>
  <separator name="grids" >
   <i type="int" name="NGX">    36</i>
   <i type="int" name="NGY">    36</i>
   <i type="int" name="NGZ">    36</i>
   <i type="int" name="NGXF">    72</i>
   <i type="int" name="NGYF">    72</i>
   <i type="int" name="NGZF">    72</i>
   <i type="logical" name="ADDGRID"> F  </i>
  </separator>
  <separator name="ionic" >
   <i type="int" name="NSW">     0</i>
   <i type="int" name="IBRION">    -1</i>
   <i type="int" name="MDALGO">     0</i>
   <i type="int" name="ISIF">     2</i>
   <i name="PSTRESS">      0.00000000</i>
   <i name="EDIFFG">      0.00001000</i>
   <i type="int" name="NFREE">     0</i>
   <i name="POTIM">      0.50000000</i>
   <i name="SMASS">     -3.00000000</i>
   <i name="SCALEE">      1.00000000</i>
  </separator>
  <separator name="ionic md" >
   <i name="TEBEG">      0.00010000</i>
   <i name="TEEND">      0.00010000</i>
   <i type="int" name="NBLOCK">     1</i>
   <i type="int" name="KBLOCK">     1</i>
   <i type="int" name="NPACO">   256</i>
   <i name="APACO">     16.00000000</i>
  </separator>
  <separator name="symmetry" >
   <i type="int" name="ISYM">     2</i>
   <i name="SYMPREC">      0.00001000</i>
  </separator>
  <separator name="dos" >
   <i type="int" name="LORBIT">     0</i>
   <v name="RWIGS">     -1.00000000</v>
   <i type="int" name="NEDOS">   301</i>
   <i name="EMIN">     10.00000000</i>
   <i name="EMAX">    -10.00000000</i>
   <i name="EFERMI">      0.00000000</i>
  </separator>
  <separator name="writing" >
   <i type="int" name="NWRITE">     2</i>
   <i type="logical" name="LWAVE"> F  </i>
   <i type="logical" name="LDOWNSAMPLE"> F  </i>
   <i type="logical" name="LCHARG"> T  </i>
   <i type="logical" name="LPARD"> F  </i>
   <i type="logical" name="LVTOT"> F  </i>
   <i type="logical" name="LVHAR"> F  </i>
   <i type="logical" name="LELF"> F  </i>
   <i type="logical" name="LOPTICS"> F  </i>
   <v name="STM">      0.00000000      0.00000000      0.00000000      0.00000000      0.00000000      0.00000000      0.00000000</v>
  </separator>
  <separator name="performance" >
   <i type="int" name="NPAR">     1</i>
   <i type="int" name="NSIM">     4</i>
   <i type="int" name="NBLK">    -1</i>
   <i type="logical" name="LPLANE"> T  </i>
   <i type="logical" name="LSCALAPACK"> T  </i>
   <i type="logical" name="LSCAAWARE"> F  </i>
   <i type="logical" name="LSCALU"> F  </i>
   <i type="logical" name="LASYNC"> F  </i>
   <i type="logical" name="LORBITALREAL"> F  </i>
  </separator>
  <separator name="miscellaneous" >
   <i type="int" name="IDIOT">     3</i>
   <i type="int" name="ISPECIAL">     0</i>
   <i type="logical" name="LMUSIC"> F  </i>
   <v name="POMASS">     28.08500000</v>
   <v name="DARWINR">      0.00000000</v>
   <v name="DARWINV">      1.00000000</v>
   <i type="logical" name="LCORR"> T  </i>
  </separator>
  <i type="logical" name="GGA_COMPAT"> T  </i>
  <i type="logical" name="LBERRY"> F  </i>
  <i type="int" name="ICORELEVEL">     0</i>
  <i type="logical" name="LDAU"> F  </i>
  <i type="int" name="I_CONSTRAINED_M">     0</i>
  <separator name="electronic exchange-correlation" >
   <i type="string" name="GGA">--</i>
   <i type="int" name="VOSKOWN">     0</i>
   <i type="logical" name="LHFCALC"> F  </i>
   <i type="string" name="PRECFOCK"></i>
   <i type="logical" name="LSYMGRAD"> F  </i>
   <i type="logical" name="LHFONE"> F  </i>
   <i type="logical" name="LRHFCALC"> F  </i>
   <i type="logical" name="LTHOMAS"> F  </i>
   <i type="logical" name="LMODELHF"> F  </i>
   <i name="ENCUT4O">     -1.00000000</i>
   <i type="int" name="EXXOEP">     0</i>
   <i type="int" name="FOURORBIT">     0</i>
   <i name="AEXX">      0.00000000</i>
   <i name="HFALPHA">      0.00000000</i>
   <i name="MCALPHA">      0.00000000</i>
   <i name="ALDAX">      1.00000000</i>
   <i name="AGGAX">      1.00000000</i>
   <i name="ALDAC">      1.00000000</i>
   <i name="AGGAC">      1.00000000</i>
   <i type="int" name="NKREDX">     1</i>
   <i type="int" name="NKREDY">     1</i>
   <i type="int" name="NKREDZ">     1</i>
   <i type="logical" name="SHIFTRED"> F  </i>
   <i type="logical" name="ODDONLY"> F  </i>
   <i type="logical" name="EVENONLY"> F  </i>
   <i type="int" name="LMAXFOCK">     0</i>
   <i type="int" name="NMAXFOCKAE">     0</i>
   <i type="logical" name="LFOCKAEDFT"> F  </i>
   <i name="HFSCREEN">      0.00000000</i>
   <i name="HFSCREENC">      0.00000000</i>
   <i type="int" name="NBANDSGWLOW">     0</i>
  </separator>
  <separator name="vdW DFT" >
   <i type="logical" name="LUSE_VDW"> F  </i>
   <i name="Zab_VDW">     -0.84910000</i>
   <i name="PARAM1">      0.12340000</i>
   <i name="PARAM2">      1.00000000</i>
   <i name="PARAM3">      0.00000000</i>
  </separator>
  <separator name="model GW" >
   <i type="int" name="MODEL_GW">     0</i>
   <i name="MODEL_EPS0">     12.00772552</i>
   <i name="MODEL_ALPHA">      1.00000000</i>
  </separator>
  <separator name="linear response parameters" >
   <i type="logical" name="LEPSILON"> F  </i>
   <i type="logical" name="LRPA"> F  </i>
   <i type="logical" name="LNABLA"> F  </i>
   <i type="logical" name="LVEL"> F  </i>
   <i type="int" name="KINTER">     0</i>
   <i name="CSHIFT">      0.10000000</i>
   <i name="OMEGAMAX">     -1.00000000</i>
   <i name="DEG_THRESHOLD">      0.00200000</i>
   <i name="RTIME">     -0.10000000</i>
   <i name="WPLASMAI">      0.00000000</i>
   <v name="DFIELD">      0.00000000      0.00000000      0.00000000</v>
   <v name="WPLASMA">      0.00000000      0.00000000      0.00000000      0.00000000      0.00000000      0.00000000      0.00000000      0.00000000      0.00000000</v>
  </separator>
  <separator name="orbital magnetization" >
   <i type="logical" name="NUCIND"> F  </i>
   <v name="MAGPOS">      0.00000000      0.00000000      0.00000000</v>
   <i type="logical" name="LNICSALL"> T  </i>
   <i type="logical" name="ORBITALMAG"> F  </i>
   <i type="logical" name="LMAGBLOCH"> F  </i>
   <i type="logical" name="LCHIMAG"> F  </i>
   <i type="logical" name="LGAUGE"> T  </i>
   <i type="int" name="MAGATOM">     0</i>
   <v name="MAGDIPOL">      0.00000000      0.00000000      0.00000000</v>
   <v name="AVECCONST">      0.00000000      0.00000000      0.00000000</v>
  </separator>
  <separator name="response functions" >
   <i type="logical" name="LADDER"> F  </i>
   <i type="logical" name="LRPAFORCE"> F  </i>
   <i type="logical" name="LFXC"> F  </i>
   <i type="logical" name="LHARTREE"> T  </i>
   <i type="int" name="IBSE">     0</i>
   <v type="int" name="KPOINT">    -1     0     0     0</v>
   <i type="logical" name="LTCTE"> F  </i>
   <i type="logical" name="LTETE"> F  </i>
   <i type="logical" name="LTRIPLET"> F  </i>
   <i type="logical" name="LFXCEPS"> F  </i>
   <i type="logical" name="LFXHEG"> F  </i>
   <i type="int" name="NATURALO">     2</i>
   <i type="logical" name="L2ORDER"> F  </i>
   <i type="logical" name="LMP2LT"> F  </i>
   <i type="logical" name="LUSEW"> F  </i>
   <i name="ENCUTGW">     -2.00000000</i>
   <i name="ENCUTGWSOFT">     -2.00000000</i>
   <i name="ENCUTLF">     -1.00000000</i>
   <i type="int" name="LMAXMP2">    -1</i>
   <i name="SCISSOR">      0.00000000</i>
   <i type="int" name="NOMEGA">     0</i>
   <i type="int" name="NOMEGAR">     0</i>
   <i type="int" name="NBANDSGW">    -1</i>
   <i type="int" name="NBANDSO">    -1</i>
   <i type="int" name="NBANDSV">    -1</i>
   <i type="int" name="NELM">     1</i>
   <i type="int" name="NELMHF">     1</i>
   <i type="int" name="DIM">     3</i>
   <i type="int" name="ANTIRES">     0</i>
   <i name="OMEGAMAX">    -30.00000000</i>
   <i name="OMEGAMIN">    -30.00000000</i>
   <i name="OMEGATL">   -200.00000000</i>
   <i type="int" name="OMEGAGRID">   140</i>
   <i name="CSHIFT">     -0.10000000</i>
   <i type="logical" name="SELFENERGY"> F  </i>
   <i type="logical" name="LSPECTRAL"> F  </i>
   <i type="logical" name="LSPECTRALGW"> F  </i>
   <i type="logical" name="LSINGLES"> F  </i>
   <i type="logical" name="LFERMIGW"> F  </i>
   <i type="logical" name="ODDONLYGW"> F  </i>
   <i type="logical" name="EVENONLYGW"> F  </i>
   <i type="int" name="NKREDLFX">     1</i>
   <i type="int" name="NKREDLFY">     1</i>
   <i type="int" name="NKREDLFZ">     1</i>
   <i type="int" name="MAXMEM">  2800</i>
   <i type="int" name="TELESCOPE">     0</i>
   <i type="int" name="TAUPAR">     1</i>
   <i type="int" name="OMEGAPAR">    -1</i>
   <i name="LAMBDA">      1.00000000</i>
  </separator>
  <separator name="External order field" >
   <i name="OFIELD_KAPPA">      0.00000000</i>
   <v name="OFIELD_K">      0.00000000      0.00000000      0.00000000</v>
   <i name="OFIELD_Q6_NEAR">      0.00000000</i>
   <i name="OFIELD_Q6_FAR">      0.00000000</i>
   <i name="OFIELD_A">      0.00000000</i>
  </separator>
 </parameters>
 <atominfo>
  <atoms>       8 </atoms>
  <types>       1 </types>
  <array name="atoms" >
   <dimension dim="1">ion</dimension>
   <field type="string">element</field>
   <field type="int">atomtype</field>
   <set>
    <rc><c>Si</c><c>   1</c></rc>
    <rc><c>Si</c><c>   1</c></rc>
    <rc><c>Si</c><c>   1</c></rc>
    <rc><c>Si</c><c>   1</c></rc>
    <rc><c>Si</c><c>   1</c></rc>
    <rc><c>Si</c><c>   1</c></rc>
    <rc><c>Si</c><c>   1</c></rc>
    <rc><c>Si</c><c>   1</c></rc>
   </set>
  </array>
  <array name="atomtypes" >
   <dimension dim="1">type</dimension>
   <field type="int">atomspertype</field>
   <field type="string">element</field>
   <field>mass</field>
   <field>valence</field>
   <field type="string">pseudopotential</field>
   <set>
    <rc><c>   8</c><c>Si</c><c>     28.08500000</c><c>      4.00000000</c><c> PAW_PBE Si 05Jan2001                   </c></rc>
   </set>
  </array>
 </atominfo>
 <structure name="initialpos" >
  <crystal>
   <varray name="basis" >
    <v>       5.43000000       0.00000000       0.00000000 </v>
    <v>       0.00000000       5.43000000       0.00000000 </v>
    <v>       0.00000000       0.00000000       5.43000000 </v>
   </varray>
   <i name="volume">    160.10300700 </i>
   <varray name="rec_basis" >
    <v>       0.18416206       0.00000000       0.00000000 </v>
    <v>       0.00000000       0.18416206       0.00000000 </v>
    <v>       0.00000000       0.00000000       0.18416206 </v>
   </varray>
  </crystal>
  <varray name="positions" >
   <v>       0.00000000       0.00000000       0.00000000 </v>
   <v>       0.00000000       0.50000000       0.50000000 </v>
   <v>       0.50000000       0.00000000       0.50000000 </v>
   <v>       0.50000000       0.50000000       0.00000000 </v>
   <v>       0.25000000       0.25000000       0.25000000 </v>
   <v>       0.25000000       0.75000000       0.75000000 </v>
   <v>       0.75000000       0.25000000       0.75000000 </v>
   <v>       0.75000000       0.75000000       0.25000000 </v>
  </varray>
 </structure>
 <calculation>
  <scstep>
   <time name="dav">    2.77    2.78</time>
   <time name="total">    2.91    2.92</time>
   <energy>
    <i name="alphaZ">     13.45656811 </i>
    <i name="ewald">   -914.25413255 </i>
    <i name="hartreedc">    -44.00432972 </i>
    <i name="XCdc">    -74.40747923 </i>
    <i name="pawpsdc">    263.82083246 </i>
    <i name="pawaedc">   -123.07410713 </i>
    <i name="eentropy">      0.00000000 </i>
    <i name="bandstr">    113.85231060 </i>
    <i name="atom">    824.52501657 </i>
    <i name="e_fr_energy">     59.91467911 </i>
    <i name="e_wo_entrp">     59.91467911 </i>
    <i name="e_0_energy">     59.91467911 </i>
   </energy>
  </scstep>
  <scstep>
   <time name="dav">    3.44    3.45</time>
   <time name="total">    3.44    3.46</time>
   <energy>
    <i name="e_fr_energy">    -39.40579258 </i>
    <i name="e_wo_entrp">    -39.40579258 </i>
    <i name="e_0_energy">    -39.40579258 </i>
   </energy>
  </scstep>
  <scstep>
   <time name="dav">    3.32    3.33</time>
   <time name="total">    3.32    3.33</time>
   <energy>
    <i name="e_fr_energy">    -44.00181314 </i>
    <i name="e_wo_entrp">    -44.00181314 </i>
    <i name="e_0_energy">    -44.00181314 </i>
   </energy>
  </scstep>
  <scstep>
   <time name="dav">    3.20    3.22</time>
   <time name="total">    3.21    3.22</time>
   <energy>
    <i name="e_fr_energy">    -44.08845178 </i>
    <i name="e_wo_entrp">    -44.08845178 </i>
    <i name="e_0_energy">    -44.08845178 </i>
   </energy>
  </scstep>
  <scstep>
   <time name="dav">    3.26    3.27</time>
   <time name="total">    3.54    3.55</time>
   <energy>
    <i name="e_fr_energy">    -44.09083379 </i>
    <i name="e_wo_entrp">    -44.09083379 </i>
    <i name="e_0_energy">    -44.09083379 </i>
   </energy>
  </scstep>
  <scstep>
   <time name="dav">    3.05    3.06</time>
   <time name="total">    3.46    3.48</time>
   <energy>
    <i name="e_fr_energy">    -43.59176819 </i>
    <i name="e_wo_entrp">    -43.59176819 </i>
    <i name="e_0_energy">    -43.59176819 </i>
   </energy>
  </scstep>
  <scstep>
   <time name="dav">    2.96    2.98</time>
   <time name="total">    3.37    3.38</time>
   <energy>
    <i name="e_fr_energy">    -43.36369403 </i>
    <i name="e_wo_entrp">    -43.36369403 </i>
    <i name="e_0_energy">    -43.36369403 </i>
   </energy>
  </scstep>
  <scstep>
   <time name="dav">    3.10    3.11</time>
   <time name="total">    3.51    3.53</time>
   <energy>
    <i name="e_fr_energy">    -43.36982996 </i>
    <i name="e_wo_entrp">    -43.36982996 </i>
    <i name="e_0_energy">    -43.36982996 </i>
   </energy>
  </scstep>
  <scstep>
   <time name="dav">    3.29    3.30</time>
   <time name="total">    3.69    3.71</time>
   <energy>
    <i name="e_fr_energy">    -43.37016667 </i>
    <i name="e_wo_entrp">    -43.37016667 </i>
    <i name="e_0_energy">    -43.37016667 </i>
   </energy>
  </scstep>
  <scstep>
   <time name="dav">    3.07    3.08</time>
   <time name="total">    3.48    3.49</time>
   <energy>
    <i name="e_fr_energy">    -43.37029098 </i>
    <i name="e_wo_entrp">    -43.37029098 </i>
    <i name="e_0_energy">    -43.37029098 </i>
   </energy>
  </scstep>
  <scstep>
   <time name="dav">    3.16    3.17</time>
   <time name="total">    3.56    3.57</time>
   <energy>
    <i name="e_fr_energy">    -43.37029211 </i>
    <i name="e_wo_entrp">    -43.37029211 </i>
    <i name="e_0_energy">    -43.37029211 </i>
   </energy>
  </scstep>
  <scstep>
   <time name="dav">    2.38    2.39</time>
   <time name="total">    2.51    2.52</time>
   <energy>
    <i name="alphaZ">     13.45656811 </i>
    <i name="ewald">   -914.25413255 </i>
    <i name="hartreedc">    -59.66596262 </i>
    <i name="XCdc">    -71.84382426 </i>
    <i name="pawpsdc">    297.42149165 </i>
    <i name="pawaedc">   -157.57464586 </i>
    <i name="eentropy">      0.00000000 </i>
    <i name="bandstr">     24.56519667 </i>
    <i name="atom">    824.52501657 </i>
    <i name="e_fr_energy">    -43.37029229 </i>
    <i name="e_wo_entrp">    -43.37029229 </i>
    <i name="e_0_energy">    -43.37029229 </i>
   </energy>
  </scstep>
  <structure>
   <crystal>
    <varray name="basis" >
     <v>       5.43000000       0.00000000       0.00000000 </v>
     <v>       0.00000000       5.43000000       0.00000000 </v>
     <v>       0.00000000       0.00000000       5.43000000 </v>
    </varray>
    <i name="volume">    160.10300700 </i>
    <varray name="rec_basis" >
     <v>       0.18416206       0.00000000       0.00000000 </v>
     <v>       0.00000000       0.18416206       0.00000000 </v>
     <v>       0.00000000       0.00000000       0.18416206 </v>
    </varray>
   </crystal>
   <varray name="positions" >
    <v>       0.00000000       0.00000000       0.00000000 </v>
    <v>       0.00000000       0.50000000       0.50000000 </v>
    <v>       0.50000000       0.00000000       0.50000000 </v>
    <v>       0.50000000       0.50000000       0.00000000 </v>
    <v>       0.25000000       0.25000000       0.25000000 </v>
    <v>       0.25000000       0.75000000       0.75000000 </v>
    <v>       0.75000000       0.25000000       0.75000000 </v>
    <v>       0.75000000       0.75000000       0.25000000 </v>
   </varray>
  </structure>
  <varray name="forces" >
   <v>      -0.00000000      -0.00000000       0.00000000 </v>
   <v>       0.00000000       0.00000000      -0.00000000 </v>
   <v>      -0.00000000      -0.00000000      -0.00000000 </v>
   <v>      -0.00000000      -0.00000000      -0.00000000 </v>
   <v>       0.00000000       0.00000000       0.00000000 </v>
   <v>       0.00000000       0.00000000      -0.00000000 </v>
   <v>      -0.00000000       0.00000000       0.00000000 </v>
   <v>       0.00000000       0.00000000      -0.00000000 </v>
  </varray>
  <varray name="stress" >
   <v>      19.30368649      -0.00000000      -0.00000000 </v>
   <v>       0.00000000      19.30368649      -0.00000000 </v>
   <v>       0.00000000       0.00000000      19.30368649 </v>
  </varray>
  <energy>
   <i name="e_fr_energy">    -43.37029229 </i>
   <i name="e_wo_entrp">    -43.37029229 </i>
   <i name="e_0_energy">      0.00000000 </i>
  </energy>
  <time name="totalsc">   42.43   42.60</time>
  <eigenvalues>
   <array>
    <dimension dim="1">band</dimension>
    <dimension dim="2">kpoint</dimension>
    <dimension dim="3">spin</dimension>
    <field>eigene</field>
    <field>occ</field>
    <set>
     <set comment="spin 1">
      <set comment="kpoint 1">
       <r>   -6.1304    1.0000 </r>
       <r>   -1.9846    1.0000 </r>
       <r>   -1.9846    1.0000 </r>
       <r>   -1.9846    1.0000 </r>
       <r>   -1.9846    1.0000 </r>
       <r>   -1.9846    1.0000 </r>
       <r>   -1.9846    1.0000 </r>
       <r>    2.9799    1.0000 </r>
       <r>    2.9799    1.0000 </r>
       <r>    2.9799    1.0000 </r>
       <r>    2.9799    1.0000 </r>
       <r>    2.9799    1.0000 </r>
       <r>    2.9799    1.0000 </r>
       <r>    5.8304    1.0000 </r>
       <r>    5.8304    1.0000 </r>
       <r>    5.8304    1.0000 </r>
       <r>    6.5419    0.0000 </r>
       <r>    6.5419    0.0000 </r>
       <r>    6.5419    0.0000 </r>
       <r>    6.5419    0.0000 </r>
       <r>    6.5419    0.0000 </r>
      </set>
      <set comment="kpoint 2">
       <r>   -6.0866    1.0000 </r>
       <r>   -2.7312    1.0000 </r>
       <r>   -1.9702    1.0000 </r>
       <r>   -1.9702    1.0000 </r>
       <r>   -1.9702    1.0000 </r>
       <r>   -1.9702    1.0000 </r>
       <r>   -1.1859    1.0000 </r>
       <r>    2.8552    1.0000 </r>
       <r>    2.8552    1.0000 </r>
       <r>    2.8552    1.0000 </r>
       <r>    2.8552    1.0000 </r>
       <r>    3.0193    1.0000 </r>
       <r>    3.0193    1.0000 </r>
       <r>    5.5512    1.0000 </r>
       <r>    5.6549    1.0000 </r>
       <r>    5.6549    1.0000 </r>
       <r>    6.4215    0.0000 </r>
       <r>    6.7768    0.0000 </r>
       <r>    6.7768    0.0000 </r>
       <r>    6.7768    0.0000 </r>
       <r>    6.7778    0.0000 </r>
      </set>
      <set comment="kpoint 3">
       <r>   -5.9555    1.0000 </r>
       <r>   -3.4171    1.0000 </r>
       <r>   -1.9314    1.0000 </r>
       <r>   -1.9314    1.0000 </r>
       <r>   -1.9314    1.0000 </r>
       <r>   -1.9314    1.0000 </r>
       <r>   -0.3451    1.0000 </r>
       <r>    2.5703    1.0000 </r>
       <r>    2.5703    1.0000 </r>
       <r>    2.5703    1.0000 </r>
       <r>    2.5703    1.0000 </r>
       <r>    3.1373    1.0000 </r>
       <r>    3.1373    1.0000 </r>
       <r>    4.8939    1.0000 </r>
       <r>    5.2545    1.0000 </r>
       <r>    5.2545    1.0000 </r>
       <r>    6.4127    0.0000 </r>
       <r>    7.1431    0.0000 </r>
       <r>    7.3951    0.0000 </r>
       <r>    7.3951    0.0000 </r>
       <r>    7.3951    0.0000 </r>
      </set>
      <set comment="kpoint 4">
       <r>   -5.7378    1.0000 </r>
       <r>   -4.0354    1.0000 </r>
       <r>   -1.8809    1.0000 </r>
       <r>   -1.8809    1.0000 </r>
       <r>   -1.8809    1.0000 </r>
       <r>   -1.8809    1.0000 </r>
       <r>    0.5266    1.0000 </r>
       <r>    2.2715    1.0000 </r>
       <r>    2.2715    1.0000 </r>
       <r>    2.2715    1.0000 </r>
       <r>    2.2715    1.0000 </r>
       <r>    3.3325    1.0000 </r>
       <r>    3.3325    1.0000 </r>
       <r>    4.0813    1.0000 </r>
       <r>    4.7915    1.0000 </r>
       <r>    4.7915    1.0000 </r>
       <r>    6.5067    0.0000 </r>
       <r>    7.6328    0.0000 </r>
       <r>    7.6619    0.0000 </r>
       <r>    8.2577    0.0000 </r>
       <r>    8.2577    0.0000 </r>
      </set>
      <set comment="kpoint 5">
       <r>   -5.4346    1.0000 </r>
       <r>   -4.5805    1.0000 </r>
       <r>   -1.8377    1.0000 </r>
       <r>   -1.8377    1.0000 </r>
       <r>   -1.8377    1.0000 </r>
       <r>   -1.8377    1.0000 </r>
       <r>    1.4176    1.0000 </r>
       <r>    2.0566    1.0000 </r>
       <r>    2.0566    1.0000 </r>
       <r>    2.0566    1.0000 </r>
       <r>    2.0566    1.0000 </r>
       <r>    3.2098    1.0000 </r>
       <r>    3.6022    1.0000 </r>
       <r>    3.6022    1.0000 </r>
       <r>    4.3433    1.0000 </r>
       <r>    4.3433    1.0000 </r>
       <r>    6.6943    0.0000 </r>
       <r>    7.2948    0.0000 </r>
       <r>    8.2468    0.0000 </r>
       <r>    9.2642    0.0000 </r>
       <r>    9.2642    0.0000 </r>
      </set>
      <set comment="kpoint 6">
       <r>   -5.0480    1.0000 </r>
       <r>   -5.0480    1.0000 </r>
       <r>   -1.8206    1.0000 </r>
       <r>   -1.8206    1.0000 </r>
       <r>   -1.8206    1.0000 </r>
       <r>   -1.8206    1.0000 </r>
       <r>    1.9791    1.0000 </r>
       <r>    1.9791    1.0000 </r>
       <r>    1.9791    1.0000 </r>
       <r>    1.9791    1.0000 </r>
       <r>    2.3161    1.0000 </r>
       <r>    2.3161    1.0000 </r>
       <r>    3.9418    1.0000 </r>
       <r>    3.9418    1.0000 </r>
       <r>    3.9418    1.0000 </r>
       <r>    3.9418    1.0000 </r>
       <r>    6.9630    0.0000 </r>
       <r>    6.9630    0.0000 </r>
       <r>    8.9661    0.0000 </r>
       <r>    8.9661    0.0000 </r>
       <r>   10.1009    0.0000 </r>
      </set>
      <set comment="kpoint 7">
       <r>   -6.0430    1.0000 </r>
       <r>   -2.7075    1.0000 </r>
       <r>   -2.7075    1.0000 </r>
       <r>   -2.0259    1.0000 </r>
       <r>   -1.8899    1.0000 </r>
       <r>   -1.1854    1.0000 </r>
       <r>   -1.1854    1.0000 </r>
       <r>    2.4986    1.0000 </r>
       <r>    2.8748    1.0000 </r>
       <r>    2.8748    1.0000 </r>
       <r>    2.9209    1.0000 </r>
       <r>    2.9209    1.0000 </r>
       <r>    3.0498    1.0000 </r>
       <r>    5.0937    1.0000 </r>
       <r>    5.4792    1.0000 </r>
       <r>    5.7908    1.0000 </r>
       <r>    6.6225    0.0000 </r>
       <r>    6.6675    0.0000 </r>
       <r>    6.6675    0.0000 </r>
       <r>    7.0013    0.0000 </r>
       <r>    7.0013    0.0000 </r>
      </set>
      <set comment="kpoint 8">
       <r>   -5.9122    1.0000 </r>
       <r>   -3.3870    1.0000 </r>
       <r>   -2.6393    1.0000 </r>
       <r>   -2.0691    1.0000 </r>
       <r>   -1.7811    1.0000 </r>
       <r>   -1.1893    1.0000 </r>
       <r>   -0.3652    1.0000 </r>
       <r>    2.1272    1.0000 </r>
       <r>    2.5430    1.0000 </r>
       <r>    2.7007    1.0000 </r>
       <r>    2.9782    1.0000 </r>
       <r>    2.9954    1.0000 </r>
       <r>    3.0734    1.0000 </r>
       <r>    4.4442    1.0000 </r>
       <r>    5.0771    1.0000 </r>
       <r>    5.5494    1.0000 </r>
       <r>    6.6667    0.0000 </r>
       <r>    6.9358    0.0000 </r>
       <r>    7.3056    0.0000 </r>
       <r>    7.3480    0.0000 </r>
       <r>    7.5936    0.0000 </r>
      </set>
      <set comment="kpoint 9">
       <r>   -5.6952    1.0000 </r>
       <r>   -4.0008    1.0000 </r>
       <r>   -2.5360    1.0000 </r>
       <r>   -2.1180    1.0000 </r>
       <r>   -1.6485    1.0000 </r>
       <r>   -1.2127    1.0000 </r>
       <r>    0.4756    1.0000 </r>
       <r>    1.8408    1.0000 </r>
       <r>    2.1806    1.0000 </r>
       <r>    2.4891    1.0000 </r>
       <r>    2.7814    1.0000 </r>
       <r>    3.1632    1.0000 </r>
       <r>    3.3134    1.0000 </r>
       <r>    3.7247    1.0000 </r>
       <r>    4.6123    1.0000 </r>
       <r>    5.0684    1.0000 </r>
       <r>    6.7657    0.0000 </r>
       <r>    7.6263    0.0000 </r>
       <r>    7.8201    0.0000 </r>
       <r>    7.9085    0.0000 </r>
       <r>    8.1832    0.0000 </r>
      </set>
      <set comment="kpoint 10">
       <r>   -5.3932    1.0000 </r>
       <r>   -4.5428    1.0000 </r>
       <r>   -2.4130    1.0000 </r>
       <r>   -2.1897    1.0000 </r>
       <r>   -1.5057    1.0000 </r>
       <r>   -1.2720    1.0000 </r>
       <r>    1.3207    1.0000 </r>
       <r>    1.6953    1.0000 </r>
       <r>    1.8851    1.0000 </r>
       <r>    2.3763    1.0000 </r>
       <r>    2.5513    1.0000 </r>
       <r>    2.9582    1.0000 </r>
       <r>    3.4262    1.0000 </r>
       <r>    3.6410    1.0000 </r>
       <r>    4.1630    1.0000 </r>
       <r>    4.5404    1.0000 </r>
       <r>    6.9548    0.0000 </r>
       <r>    7.5491    0.0000 </r>
       <r>    8.4149    0.0000 </r>
       <r>    8.5505    0.0000 </r>
       <r>    9.2052    0.0000 </r>
      </set>
      <set comment="kpoint 11">
       <r>   -5.0081    1.0000 </r>
       <r>   -5.0081    1.0000 </r>
       <r>   -2.2911    1.0000 </r>
       <r>   -2.2911    1.0000 </r>
       <r>   -1.3732    1.0000 </r>
       <r>   -1.3732    1.0000 </r>
       <r>    1.7127    1.0000 </r>
       <r>    1.7127    1.0000 </r>
       <r>    2.1533    1.0000 </r>
       <r>    2.1533    1.0000 </r>
       <r>    2.3999    1.0000 </r>
       <r>    2.3999    1.0000 </r>
       <r>    3.7625    1.0000 </r>
       <r>    3.7625    1.0000 </r>
       <r>    4.0535    1.0000 </r>
       <r>    4.0535    1.0000 </r>
       <r>    7.2220    0.0000 </r>
       <r>    7.2220    0.0000 </r>
       <r>    9.1120    0.0000 </r>
       <r>    9.1120    0.0000 </r>
       <r>    9.5699    0.0000 </r>
      </set>
      <set comment="kpoint 12">
       <r>   -5.7828    1.0000 </r>
       <r>   -3.2987    1.0000 </r>
       <r>   -3.2987    1.0000 </r>
       <r>   -2.2116    1.0000 </r>
       <r>   -1.6065    1.0000 </r>
       <r>   -0.4307    1.0000 </r>
       <r>   -0.4307    1.0000 </r>
       <r>    1.7674    1.0000 </r>
       <r>    2.6132    1.0000 </r>
       <r>    2.6132    1.0000 </r>
       <r>    2.9396    1.0000 </r>
       <r>    2.9396    1.0000 </r>
       <r>    3.2561    1.0000 </r>
       <r>    3.8020    1.0000 </r>
       <r>    4.6709    1.0000 </r>
       <r>    5.6541    1.0000 </r>
       <r>    6.8612    0.0000 </r>
       <r>    7.3173    0.0000 </r>
       <r>    7.3173    0.0000 </r>
       <r>    7.9075    0.0000 </r>
       <r>    7.9075    0.0000 </r>
      </set>
      <set comment="kpoint 13">
       <r>   -5.5679    1.0000 </r>
       <r>   -3.8986    1.0000 </r>
       <r>   -3.1585    1.0000 </r>
       <r>   -2.3752    1.0000 </r>
       <r>   -1.4040    1.0000 </r>
       <r>   -0.5516    1.0000 </r>
       <r>    0.3249    1.0000 </r>
       <r>    1.5485    1.0000 </r>
       <r>    2.2063    1.0000 </r>
       <r>    2.7754    1.0000 </r>
       <r>    2.8399    1.0000 </r>
       <r>    3.1347    1.0000 </r>
       <r>    3.2679    1.0000 </r>
       <r>    3.2899    1.0000 </r>
       <r>    4.2018    1.0000 </r>
       <r>    5.3724    1.0000 </r>
       <r>    7.2462    0.0000 </r>
       <r>    7.4220    0.0000 </r>
       <r>    8.2022    0.0000 </r>
       <r>    8.3412    0.0000 </r>
       <r>    8.5167    0.0000 </r>
      </set>
      <set comment="kpoint 14">
       <r>   -5.2693    1.0000 </r>
       <r>   -4.4307    1.0000 </r>
       <r>   -2.9777    1.0000 </r>
       <r>   -2.5655    1.0000 </r>
       <r>   -1.1790    1.0000 </r>
       <r>   -0.7287    1.0000 </r>
       <r>    1.0612    1.0000 </r>
       <r>    1.4949    1.0000 </r>
       <r>    1.8523    1.0000 </r>
       <r>    2.4591    1.0000 </r>
       <r>    2.8395    1.0000 </r>
       <r>    3.0241    1.0000 </r>
       <r>    3.1186    1.0000 </r>
       <r>    3.7463    1.0000 </r>
       <r>    3.7507    1.0000 </r>
       <r>    4.8602    1.0000 </r>
       <r>    7.6103    0.0000 </r>
       <r>    7.9971    0.0000 </r>
       <r>    8.1816    0.0000 </r>
       <r>    8.8934    0.0000 </r>
       <r>    9.2286    0.0000 </r>
      </set>
      <set comment="kpoint 15">
       <r>   -4.8891    1.0000 </r>
       <r>   -4.8891    1.0000 </r>
       <r>   -2.7730    1.0000 </r>
       <r>   -2.7730    1.0000 </r>
       <r>   -0.9462    1.0000 </r>
       <r>   -0.9462    1.0000 </r>
       <r>    1.6036    1.0000 </r>
       <r>    1.6036    1.0000 </r>
       <r>    1.7711    1.0000 </r>
       <r>    1.7711    1.0000 </r>
       <r>    2.9459    1.0000 </r>
       <r>    2.9459    1.0000 </r>
       <r>    3.3525    1.0000 </r>
       <r>    3.3525    1.0000 </r>
       <r>    4.2864    1.0000 </r>
       <r>    4.2864    1.0000 </r>
       <r>    7.8696    0.0000 </r>
       <r>    7.8696    0.0000 </r>
       <r>    8.9643    0.0000 </r>
       <r>    8.9643    0.0000 </r>
       <r>    9.5257    0.0000 </r>
      </set>
      <set comment="kpoint 16">
       <r>   -5.3570    1.0000 </r>
       <r>   -3.7328    1.0000 </r>
       <r>   -3.7328    1.0000 </r>
       <r>   -2.6574    1.0000 </r>
       <r>   -1.1360    1.0000 </r>
       <r>    0.0878    1.0000 </r>
       <r>    0.0878    1.0000 </r>
       <r>    1.4206    1.0000 </r>
       <r>    2.3384    1.0000 </r>
       <r>    2.3384    1.0000 </r>
       <r>    2.5185    1.0000 </r>
       <r>    3.3176    1.0000 </r>
       <r>    3.3176    1.0000 </r>
       <r>    3.5862    1.0000 </r>
       <r>    3.7294    1.0000 </r>
       <r>    5.3865    1.0000 </r>
       <r>    7.2443    0.0000 </r>
       <r>    8.3069    0.0000 </r>
       <r>    8.3069    0.0000 </r>
       <r>    8.8980    0.0000 </r>
       <r>    9.1255    0.0000 </r>
      </set>
      <set comment="kpoint 17">
       <r>   -5.0644    1.0000 </r>
       <r>   -4.2471    1.0000 </r>
       <r>   -3.5112    1.0000 </r>
       <r>   -2.9543    1.0000 </r>
       <r>   -0.8412    1.0000 </r>
       <r>   -0.2072    1.0000 </r>
       <r>    0.7036    1.0000 </r>
       <r>    1.4568    1.0000 </r>
       <r>    1.9077    1.0000 </r>
       <r>    1.9441    1.0000 </r>
       <r>    2.5678    1.0000 </r>
       <r>    3.2783    1.0000 </r>
       <r>    3.4159    1.0000 </r>
       <r>    3.6545    1.0000 </r>
       <r>    3.8930    1.0000 </r>
       <r>    5.0544    1.0000 </r>
       <r>    7.6876    0.0000 </r>
       <r>    8.4873    0.0000 </r>
       <r>    9.0129    0.0000 </r>
       <r>    9.0523    0.0000 </r>
       <r>    9.3294    0.0000 </r>
      </set>
      <set comment="kpoint 18">
       <r>   -4.6930    1.0000 </r>
       <r>   -4.6930    1.0000 </r>
       <r>   -3.2460    1.0000 </r>
       <r>   -3.2460    1.0000 </r>
       <r>   -0.5261    1.0000 </r>
       <r>   -0.5261    1.0000 </r>
       <r>    1.3056    1.0000 </r>
       <r>    1.3056    1.0000 </r>
       <r>    1.6398    1.0000 </r>
       <r>    1.6398    1.0000 </r>
       <r>    2.8850    1.0000 </r>
       <r>    2.8850    1.0000 </r>
       <r>    3.5548    1.0000 </r>
       <r>    3.5548    1.0000 </r>
       <r>    4.5057    1.0000 </r>
       <r>    4.5057    1.0000 </r>
       <r>    8.4802    0.0000 </r>
       <r>    8.4802    0.0000 </r>
       <r>    8.7299    0.0000 </r>
       <r>    8.7299    0.0000 </r>
       <r>    9.4528    0.0000 </r>
      </set>
      <set comment="kpoint 19">
       <r>   -4.7810    1.0000 </r>
       <r>   -3.9971    1.0000 </r>
       <r>   -3.9971    1.0000 </r>
       <r>   -3.3359    1.0000 </r>
       <r>   -0.4814    1.0000 </r>
       <r>    0.3050    1.0000 </r>
       <r>    0.3050    1.0000 </r>
       <r>    1.3573    1.0000 </r>
       <r>    1.5667    1.0000 </r>
       <r>    2.1468    1.0000 </r>
       <r>    2.1468    1.0000 </r>
       <r>    2.8312    1.0000 </r>
       <r>    4.0160    1.0000 </r>
       <r>    4.0422    1.0000 </r>
       <r>    4.0422    1.0000 </r>
       <r>    4.9858    1.0000 </r>
       <r>    7.7412    0.0000 </r>
       <r>    8.7283    0.0000 </r>
       <r>    9.0155    0.0000 </r>
       <r>    9.0155    0.0000 </r>
       <r>    9.4936    0.0000 </r>
      </set>
      <set comment="kpoint 20">
       <r>   -4.4233    1.0000 </r>
       <r>   -4.4233    1.0000 </r>
       <r>   -3.6893    1.0000 </r>
       <r>   -3.6893    1.0000 </r>
       <r>   -0.0967    1.0000 </r>
       <r>   -0.0967    1.0000 </r>
       <r>    0.8232    1.0000 </r>
       <r>    0.8232    1.0000 </r>
       <r>    1.8041    1.0000 </r>
       <r>    1.8041    1.0000 </r>
       <r>    2.4472    1.0000 </r>
       <r>    2.4472    1.0000 </r>
       <r>    4.1215    1.0000 </r>
       <r>    4.1215    1.0000 </r>
       <r>    4.6137    1.0000 </r>
       <r>    4.6137    1.0000 </r>
       <r>    8.2160    0.0000 </r>
       <r>    8.2160    0.0000 </r>
       <r>    8.7324    0.0000 </r>
       <r>    8.7324    0.0000 </r>
       <r>    9.7071    0.0000 </r>
      </set>
      <set comment="kpoint 21">
       <r>   -4.0859    1.0000 </r>
       <r>   -4.0859    1.0000 </r>
       <r>   -4.0859    1.0000 </r>
       <r>   -4.0859    1.0000 </r>
       <r>    0.3524    1.0000 </r>
       <r>    0.3524    1.0000 </r>
       <r>    0.3524    1.0000 </r>
       <r>    0.3524    1.0000 </r>
       <r>    2.0792    1.0000 </r>
       <r>    2.0792    1.0000 </r>
       <r>    2.0792    1.0000 </r>
       <r>    2.0792    1.0000 </r>
       <r>    4.5037    1.0000 </r>
       <r>    4.5037    1.0000 </r>
       <r>    4.5037    1.0000 </r>
       <r>    4.5037    1.0000 </r>
       <r>    8.2835    0.0000 </r>
       <r>    8.2835    0.0000 </r>
       <r>    8.2835    0.0000 </r>
       <r>    8.2835    0.0000 </r>
       <r>   10.6246    0.0000 </r>
      </set>
      <set comment="kpoint 22">
       <r>   -5.9994    1.0000 </r>
       <r>   -2.6878    1.0000 </r>
       <r>   -2.6878    1.0000 </r>
       <r>   -2.6878    1.0000 </r>
       <r>   -1.1859    1.0000 </r>
       <r>   -1.1859    1.0000 </r>
       <r>   -1.1859    1.0000 </r>
       <r>    2.5510    1.0000 </r>
       <r>    2.5510    1.0000 </r>
       <r>    2.5510    1.0000 </r>
       <r>    3.0888    1.0000 </r>
       <r>    3.0888    1.0000 </r>
       <r>    3.0888    1.0000 </r>
[...]
       <r>    4.5861    1.0000 </r>
       <r>    4.5861    1.0000 </r>
       <r>    4.5861    1.0000 </r>
       <r>    4.5861    1.0000 </r>
       <r>    8.0475    0.0000 </r>
       <r>    8.0475    0.0000 </r>
       <r>    8.0475    0.0000 </r>
       <r>    8.0475    0.0000 </r>
       <r>    9.2789    0.0000 </r>
      </set>
      <set comment="kpoint 53">
       <r>   -4.2498    1.0000 </r>
       <r>   -3.7436    1.0000 </r>
       <r>   -3.7436    1.0000 </r>
       <r>   -3.7436    1.0000 </r>
       <r>   -0.9914    1.0000 </r>
       <r>   -0.9914    1.0000 </r>
       <r>   -0.9914    1.0000 </r>
       <r>   -0.4395    1.0000 </r>
       <r>    3.8556    1.0000 </r>
       <r>    3.8556    1.0000 </r>
       <r>    3.8556    1.0000 </r>
       <r>    4.3863    1.0000 </r>
       <r>    4.3863    1.0000 </r>
       <r>    4.3863    1.0000 </r>
       <r>    4.7045    1.0000 </r>
       <r>    4.7045    1.0000 </r>
       <r>    7.4548    0.0000 </r>
       <r>    7.9848    0.0000 </r>
       <r>    7.9848    0.0000 </r>
       <r>    7.9848    0.0000 </r>
       <r>    9.1481    0.0000 </r>
      </set>
      <set comment="kpoint 54">
       <r>   -3.9960    1.0000 </r>
       <r>   -3.9960    1.0000 </r>
       <r>   -3.7106    1.0000 </r>
       <r>   -3.7106    1.0000 </r>
       <r>   -1.0933    1.0000 </r>
       <r>   -1.0933    1.0000 </r>
       <r>   -0.7864    1.0000 </r>
       <r>   -0.7864    1.0000 </r>
       <r>    3.9734    1.0000 </r>
       <r>    3.9734    1.0000 </r>
       <r>    4.4688    1.0000 </r>
       <r>    4.4688    1.0000 </r>
       <r>    4.4692    1.0000 </r>
       <r>    4.4692    1.0000 </r>
       <r>    4.5493    1.0000 </r>
       <r>    4.5493    1.0000 </r>
       <r>    7.6412    0.0000 </r>
       <r>    7.6412    0.0000 </r>
       <r>    7.9359    0.0000 </r>
       <r>    7.9359    0.0000 </r>
       <r>    9.0510    0.0000 </r>
      </set>
      <set comment="kpoint 55">
       <r>   -3.8312    1.0000 </r>
       <r>   -3.8312    1.0000 </r>
       <r>   -3.8312    1.0000 </r>
       <r>   -3.8312    1.0000 </r>
       <r>   -1.0328    1.0000 </r>
       <r>   -1.0328    1.0000 </r>
       <r>   -1.0328    1.0000 </r>
       <r>   -1.0328    1.0000 </r>
       <r>    4.3533    1.0000 </r>
       <r>    4.3533    1.0000 </r>
       <r>    4.3533    1.0000 </r>
       <r>    4.3533    1.0000 </r>
       <r>    4.6197    1.0000 </r>
       <r>    4.6197    1.0000 </r>
       <r>    4.6197    1.0000 </r>
       <r>    4.6197    1.0000 </r>
       <r>    7.6122    0.0000 </r>
       <r>    7.6122    0.0000 </r>
       <r>    7.6122    0.0000 </r>
       <r>    7.6122    0.0000 </r>
       <r>    9.1721    0.0000 </r>
      </set>
      <set comment="kpoint 56">
       <r>   -3.7980    1.0000 </r>
       <r>   -3.7980    1.0000 </r>
       <r>   -3.7980    1.0000 </r>
       <r>   -3.7980    1.0000 </r>
       <r>   -1.1377    1.0000 </r>
       <r>   -1.1377    1.0000 </r>
       <r>   -1.1377    1.0000 </r>
       <r>   -1.1377    1.0000 </r>
       <r>    4.6329    1.0000 </r>
       <r>    4.6329    1.0000 </r>
       <r>    4.6329    1.0000 </r>
       <r>    4.6329    1.0000 </r>
       <r>    4.6329    1.0000 </r>
       <r>    4.6329    1.0000 </r>
       <r>    4.6329    1.0000 </r>
       <r>    4.6329    1.0000 </r>
       <r>    7.3730    0.0000 </r>
       <r>    7.3730    0.0000 </r>
       <r>    7.3730    0.0000 </r>
       <r>    7.3730    0.0000 </r>
       <r>    9.1730    0.0000 </r>
      </set>
     </set>
    </set>
   </array>
  </eigenvalues>
  <separator name="orbital magnetization" >
   <v name="MAGDIPOLOUT">      0.00000000      0.00000000      0.00000000</v>
  </separator>
  <dos>
   <i name="efermi">      5.85328243 </i>
   <total>
    <array>
     <dimension dim="1">gridpoints</dimension>
     <dimension dim="2">spin</dimension>
     <field>energy</field>
     <field>total</field>
     <field>integrated</field>
     <set>
      <set comment="spin 1">
       <r>    -8.1304     0.0000     0.0000 </r>
       <r>    -8.0612     0.0000     0.0000 </r>
       <r>    -7.9921     0.0000     0.0000 </r>
       <r>    -7.9229     0.0000     0.0000 </r>
       <r>    -7.8537     0.0000     0.0000 </r>
       <r>    -7.7845     0.0000     0.0000 </r>
       <r>    -7.7153     0.0000     0.0000 </r>
       <r>    -7.6461     0.0000     0.0000 </r>
       <r>    -7.5770     0.0000     0.0000 </r>
       <r>    -7.5078     0.0000     0.0000 </r>
       <r>    -7.4386     0.0000     0.0000 </r>
       <r>    -7.3694     0.0000     0.0000 </r>
       <r>    -7.3002     0.0000     0.0000 </r>
       <r>    -7.2310     0.0000     0.0000 </r>
       <r>    -7.1619     0.0000     0.0000 </r>
       <r>    -7.0927     0.0000     0.0000 </r>
       <r>    -7.0235     0.0000     0.0000 </r>
       <r>    -6.9543     0.0000     0.0000 </r>
       <r>    -6.8851     0.0000     0.0000 </r>
       <r>    -6.8159     0.0000     0.0000 </r>
       <r>    -6.7468     0.0000     0.0000 </r>
       <r>    -6.6776     0.0000     0.0000 </r>
       <r>    -6.6084     0.0000     0.0000 </r>
       <r>    -6.5392     0.0000     0.0000 </r>
       <r>    -6.4700     0.0000     0.0000 </r>
       <r>    -6.4008     0.0000     0.0000 </r>
       <r>    -6.3317     0.0000     0.0000 </r>
       <r>    -6.2625     0.0000     0.0000 </r>
       <r>    -6.1933     0.0000     0.0000 </r>
       <r>    -6.1241     0.0038     0.0000 </r>
       <r>    -6.0549     0.3530     0.0117 </r>
       <r>    -5.9857     0.4680     0.0390 </r>
       <r>    -5.9166     0.6287     0.0780 </r>
       <r>    -5.8474     0.6990     0.1233 </r>
       <r>    -5.7782     0.7999     0.1752 </r>
       <r>    -5.7090     0.9073     0.2344 </r>
       <r>    -5.6398     0.9626     0.2989 </r>
       <r>    -5.5706     1.0284     0.3678 </r>
       <r>    -5.5015     1.1055     0.4415 </r>
       <r>    -5.4323     1.1928     0.5210 </r>
       <r>    -5.3631     1.2452     0.6056 </r>
       <r>    -5.2939     1.3008     0.6936 </r>
       <r>    -5.2247     1.3598     0.7856 </r>
       <r>    -5.1555     1.4267     0.8819 </r>
       <r>    -5.0864     1.4946     0.9830 </r>
       <r>    -5.0172     1.5626     1.0888 </r>
       <r>    -4.9480     1.6140     1.1986 </r>
       <r>    -4.8788     1.6683     1.3122 </r>
       <r>    -4.8096     1.7261     1.4296 </r>
       <r>    -4.7404     1.7878     1.5511 </r>
       <r>    -4.6713     1.8573     1.6771 </r>
       <r>    -4.6021     1.9319     1.8082 </r>
       <r>    -4.5329     1.9989     1.9443 </r>
       <r>    -4.4637     2.0603     2.0847 </r>
       <r>    -4.3945     2.2376     2.2311 </r>
       <r>    -4.3253     2.3566     2.3903 </r>
       <r>    -4.2561     2.4180     2.5559 </r>
       <r>    -4.1870     2.5969     2.7306 </r>
       <r>    -4.1178     2.6016     2.9111 </r>
       <r>    -4.0486     2.5256     3.0882 </r>
       <r>    -3.9794     2.4785     3.2612 </r>
       <r>    -3.9102     2.5273     3.4340 </r>
       <r>    -3.8410     2.9229     3.6223 </r>
       <r>    -3.7719     3.6568     3.8507 </r>
       <r>    -3.7027     3.8282     4.1129 </r>
       <r>    -3.6335     3.2278     4.3501 </r>
       <r>    -3.5643     3.4820     4.5816 </r>
       <r>    -3.4951     3.6317     4.8373 </r>
       <r>    -3.4259     2.9219     5.0528 </r>
       <r>    -3.3568     3.0713     5.2548 </r>
       <r>    -3.2876     2.8261     5.4606 </r>
       <r>    -3.2184     2.9672     5.6588 </r>
       <r>    -3.1492     3.3257     5.8791 </r>
       <r>    -3.0800     2.6516     6.0801 </r>
       <r>    -3.0108     2.4267     6.2553 </r>
       <r>    -2.9417     2.3198     6.4195 </r>
       <r>    -2.8725     2.2117     6.5762 </r>
       <r>    -2.8033     2.1159     6.7258 </r>
       <r>    -2.7341     2.0644     6.8700 </r>
       <r>    -2.6649     2.5243     7.0312 </r>
       <r>    -2.5957     2.2557     7.2137 </r>
       <r>    -2.5266     1.9394     7.3580 </r>
       <r>    -2.4574     1.6830     7.4830 </r>
       <r>    -2.3882     1.4674     7.5920 </r>
       <r>    -2.3190     1.2639     7.6864 </r>
       <r>    -2.2498     1.0702     7.7671 </r>
       <r>    -2.1806     0.8958     7.8351 </r>
       <r>    -2.1115     0.7365     7.8913 </r>
       <r>    -2.0423     0.6847     7.9396 </r>
       <r>    -1.9731     0.5063     7.9861 </r>
       <r>    -1.9039     0.3169     8.0110 </r>
       <r>    -1.8347     0.3256     8.0322 </r>
       <r>    -1.7655     0.4686     8.0595 </r>
       <r>    -1.6964     0.6136     8.0970 </r>
       <r>    -1.6272     0.7597     8.1445 </r>
       <r>    -1.5580     0.9073     8.2021 </r>
       <r>    -1.4888     1.0741     8.2705 </r>
       <r>    -1.4196     1.2657     8.3513 </r>
       <r>    -1.3504     1.5003     8.4464 </r>
       <r>    -1.2813     1.8430     8.5614 </r>
       <r>    -1.2121     2.4345     8.7080 </r>
       <r>    -1.1429     2.4696     8.9368 </r>
       <r>    -1.0737     3.2993     9.1208 </r>
       <r>    -1.0045     4.5211     9.3850 </r>
       <r>    -0.9353     7.5281     9.7869 </r>
       <r>    -0.8662     5.4199    10.2436 </r>
       <r>    -0.7970     4.4614    10.5832 </r>
       <r>    -0.7278     3.8050    10.8674 </r>
       <r>    -0.6586     3.4281    11.1156 </r>
       <r>    -0.5894     3.2628    11.3459 </r>
       <r>    -0.5202     3.0185    11.5657 </r>
       <r>    -0.4511     2.7411    11.7625 </r>
       <r>    -0.3819     2.6698    11.9532 </r>
       <r>    -0.3127     2.3262    12.1200 </r>
       <r>    -0.2435     2.2539    12.2783 </r>
       <r>    -0.1743     2.1554    12.4313 </r>
       <r>    -0.1051     2.0355    12.5762 </r>
       <r>    -0.0360     1.9005    12.7124 </r>
       <r>     0.0332     1.7965    12.8400 </r>
       <r>     0.1024     1.7354    12.9620 </r>
       <r>     0.1716     1.6938    13.0805 </r>
       <r>     0.2408     1.6590    13.1967 </r>
       <r>     0.3100     1.5741    13.3086 </r>
       <r>     0.3791     1.5485    13.4161 </r>
       <r>     0.4483     1.5371    13.5229 </r>
       <r>     0.5175     1.5136    13.6285 </r>
       <r>     0.5867     1.4584    13.7315 </r>
       <r>     0.6559     1.3802    13.8298 </r>
       <r>     0.7251     1.3008    13.9223 </r>
       <r>     0.7942     1.2410    14.0103 </r>
       <r>     0.8634     1.1964    14.0944 </r>
       <r>     0.9326     1.1656    14.1760 </r>
       <r>     1.0018     1.1389    14.2557 </r>
       <r>     1.0710     1.1183    14.3337 </r>
       <r>     1.1402     1.1207    14.4110 </r>
       <r>     1.2093     1.1507    14.4894 </r>
       <r>     1.2785     1.2139    14.5710 </r>
       <r>     1.3477     1.2968    14.6580 </r>
       <r>     1.4169     1.3708    14.7499 </r>
       <r>     1.4861     1.9250    14.8607 </r>
       <r>     1.5553     2.5702    15.0181 </r>
       <r>     1.6244     3.0976    15.2235 </r>
       <r>     1.6936     3.0194    15.4224 </r>
       <r>     1.7628     3.6836    15.6546 </r>
       <r>     1.8320     4.6907    15.9494 </r>
       <r>     1.9012     4.6987    16.2776 </r>
       <r>     1.9704     4.6437    16.6006 </r>
       <r>     2.0395     5.1765    16.9266 </r>
       <r>     2.1087     4.7590    17.2727 </r>
       <r>     2.1779     4.1195    17.5789 </r>
       <r>     2.2471     3.9732    17.8585 </r>
       <r>     2.3163     3.8510    18.1289 </r>
       <r>     2.3855     3.8284    18.3935 </r>
       <r>     2.4546     4.0712    18.6659 </r>
       <r>     2.5238     4.4283    18.9594 </r>
       <r>     2.5930     5.0016    19.2855 </r>
       <r>     2.6622     5.3752    19.6426 </r>
       <r>     2.7314     5.2049    20.0208 </r>
       <r>     2.8006     4.8749    20.3614 </r>
       <r>     2.8697     5.4010    20.7191 </r>
       <r>     2.9389     4.7523    21.0465 </r>
       <r>     3.0081     6.4075    21.4380 </r>
       <r>     3.0773     6.6238    21.9036 </r>
       <r>     3.1465     4.8347    22.3007 </r>
       <r>     3.2157     4.7939    22.6180 </r>
       <r>     3.2848     6.7937    22.9997 </r>
       <r>     3.3540     6.1459    23.4619 </r>
       <r>     3.4232     5.6316    23.8444 </r>
       <r>     3.4924     5.2877    24.2129 </r>
       <r>     3.5616     5.4797    24.5845 </r>
       <r>     3.6308     6.3673    24.9847 </r>
       <r>     3.6999     6.7436    25.4630 </r>
       <r>     3.7691     5.3537    25.8837 </r>
       <r>     3.8383     4.4050    26.2201 </r>
       <r>     3.9075     4.2230    26.5125 </r>
       <r>     3.9767     4.2868    26.8076 </r>
       <r>     4.0459     4.8086    27.1181 </r>
       <r>     4.1150     5.3832    27.4682 </r>
       <r>     4.1842     5.4682    27.8430 </r>
       <r>     4.2534     5.2290    28.2150 </r>
       <r>     4.3226     4.9106    28.5658 </r>
       <r>     4.3918     4.8424    28.9002 </r>
       <r>     4.4610     4.4686    29.2269 </r>
       <r>     4.5301     4.4081    29.5271 </r>
       <r>     4.5993     6.3766    29.9220 </r>
       <r>     4.6685     3.4412    30.2194 </r>
       <r>     4.7377     3.0851    30.4408 </r>
       <r>     4.8069     2.8530    30.6490 </r>
       <r>     4.8761     2.4585    30.8309 </r>
       <r>     4.9452     2.2300    30.9918 </r>
       <r>     5.0144     2.1750    31.1418 </r>
       <r>     5.0836     1.7858    31.2755 </r>
       <r>     5.1528     1.7481    31.4027 </r>
       <r>     5.2220     1.5099    31.5140 </r>
       <r>     5.2912     1.3411    31.6116 </r>
       <r>     5.3604     1.2353    31.7016 </r>
       <r>     5.4295     0.9387    31.7737 </r>
       <r>     5.4987     1.0915    31.8381 </r>
       <r>     5.5679     0.8499    31.9090 </r>
       <r>     5.6371     0.4629    31.9541 </r>
       <r>     5.7063     0.3487    31.9814 </r>
       <r>     5.7755     0.1115    31.9984 </r>
       <r>     5.8446     0.0000    32.0000 </r>
       <r>     5.9138     0.0000    32.0000 </r>
       <r>     5.9830     0.0000    32.0000 </r>
       <r>     6.0522     0.0000    32.0000 </r>
       <r>     6.1214     0.0000    32.0000 </r>
       <r>     6.1906     0.0000    32.0000 </r>
       <r>     6.2597     0.0000    32.0000 </r>
       <r>     6.3289     0.0000    32.0000 </r>
       <r>     6.3981     0.0000    32.0000 </r>
       <r>     6.4673     0.1383    32.0033 </r>
       <r>     6.5365     0.3254    32.0195 </r>
       <r>     6.6057     0.5220    32.0485 </r>
       <r>     6.6748     1.3109    32.1071 </r>
       <r>     6.7440     1.3131    32.1990 </r>
       <r>     6.8132     1.3057    32.2877 </r>
       <r>     6.8824     1.3386    32.3798 </r>
       <r>     6.9516     1.4248    32.4751 </r>
       <r>     7.0208     1.6490    32.5806 </r>
       <r>     7.0899     1.8381    32.7041 </r>
       <r>     7.1591     1.9571    32.8333 </r>
       <r>     7.2283     2.1801    32.9761 </r>
       <r>     7.2975     2.8036    33.1540 </r>
       <r>     7.3667     2.7240    33.3386 </r>
       <r>     7.4359     2.8402    33.5307 </r>
       <r>     7.5050     3.1200    33.7362 </r>
       <r>     7.5742     3.5297    33.9650 </r>
       <r>     7.6434     3.8129    34.2347 </r>
       <r>     7.7126     3.9370    34.4970 </r>
       <r>     7.7818     4.2967    34.7822 </r>
       <r>     7.8510     4.6167    35.0923 </r>
       <r>     7.9201     4.8075    35.4153 </r>
       <r>     7.9893     5.9559    35.7827 </r>
       <r>     8.0585     6.0304    36.2103 </r>
       <r>     8.1277     6.1491    36.6341 </r>
       <r>     8.1969     6.0659    37.0573 </r>
       <r>     8.2661     6.7982    37.4859 </r>
       <r>     8.3352     5.2301    37.8911 </r>
       <r>     8.4044     5.0112    38.2470 </r>
       <r>     8.4736     4.4912    38.5734 </r>
       <r>     8.5428     4.3737    38.8771 </r>
       <r>     8.6120     3.9358    39.1703 </r>
       <r>     8.6812     3.7207    39.4280 </r>
       <r>     8.7503     3.8313    39.6911 </r>
       <r>     8.8195     3.5825    39.9479 </r>
       <r>     8.8887     3.2788    40.1855 </r>
       <r>     8.9579     2.8623    40.3994 </r>
       <r>     9.0271     1.8830    40.5701 </r>
       <r>     9.0963     2.7217    40.7118 </r>
       <r>     9.1654     7.6045    41.0313 </r>
       <r>     9.2346     3.3181    41.3939 </r>
       <r>     9.3038     1.9933    41.5684 </r>
       <r>     9.3730     1.6065    41.6906 </r>
       <r>     9.4422     1.4248    41.7950 </r>
       <r>     9.5114     0.9356    41.8736 </r>
       <r>     9.5805     0.5408    41.9241 </r>
       <r>     9.6497     0.2900    41.9523 </r>
       <r>     9.7189     0.1430    41.9666 </r>
       <r>     9.7881     0.0951    41.9744 </r>
       <r>     9.8573     0.0776    41.9803 </r>
       <r>     9.9265     0.0624    41.9852 </r>
       <r>     9.9956     0.0497    41.9890 </r>
       <r>    10.0648     0.0394    41.9921 </r>
       <r>    10.1340     0.0312    41.9945 </r>
       <r>    10.2032     0.0240    41.9964 </r>
       <r>    10.2724     0.0176    41.9979 </r>
       <r>    10.3416     0.0118    41.9989 </r>
       <r>    10.4107     0.0068    41.9995 </r>
       <r>    10.4799     0.0031    41.9999 </r>
       <r>    10.5491     0.0008    42.0000 </r>
       <r>    10.6183     0.0000    42.0000 </r>
       <r>    10.6875     0.0000    42.0000 </r>
       <r>    10.7567     0.0000    42.0000 </r>
       <r>    10.8258     0.0000    42.0000 </r>
       <r>    10.8950     0.0000    42.0000 </r>
       <r>    10.9642     0.0000    42.0000 </r>
       <r>    11.0334     0.0000    42.0000 </r>
       <r>    11.1026     0.0000    42.0000 </r>
       <r>    11.1718     0.0000    42.0000 </r>
       <r>    11.2409     0.0000    42.0000 </r>
       <r>    11.3101     0.0000    42.0000 </r>
       <r>    11.3793     0.0000    42.0000 </r>
       <r>    11.4485     0.0000    42.0000 </r>
       <r>    11.5177     0.0000    42.0000 </r>
       <r>    11.5869     0.0000    42.0000 </r>
       <r>    11.6560     0.0000    42.0000 </r>
       <r>    11.7252     0.0000    42.0000 </r>
       <r>    11.7944     0.0000    42.0000 </r>
       <r>    11.8636     0.0000    42.0000 </r>
       <r>    11.9328     0.0000    42.0000 </r>
       <r>    12.0020     0.0000    42.0000 </r>
       <r>    12.0711     0.0000    42.0000 </r>
       <r>    12.1403     0.0000    42.0000 </r>
       <r>    12.2095     0.0000    42.0000 </r>
       <r>    12.2787     0.0000    42.0000 </r>
       <r>    12.3479     0.0000    42.0000 </r>
       <r>    12.4171     0.0000    42.0000 </r>
       <r>    12.4862     0.0000    42.0000 </r>
       <r>    12.5554     0.0000    42.0000 </r>
       <r>    12.6246     0.0000    42.0000 </r>
      </set>
     </set>
    </array>
   </total>
  </dos>
 </calculation>
 <structure name="finalpos" >
  <crystal>
   <varray name="basis" >
    <v>       5.43000000       0.00000000       0.00000000 </v>
    <v>       0.00000000       5.43000000       0.00000000 </v>
    <v>       0.00000000       0.00000000       5.43000000 </v>
   </varray>
   <i name="volume">    160.10300700 </i>
   <varray name="rec_basis" >
    <v>       0.18416206       0.00000000       0.00000000 </v>
    <v>       0.00000000       0.18416206       0.00000000 </v>
    <v>       0.00000000       0.00000000       0.18416206 </v>
   </varray>
  </crystal>
  <varray name="positions" >
   <v>       0.00000000       0.00000000       0.00000000 </v>
   <v>       0.00000000       0.50000000       0.50000000 </v>
   <v>       0.50000000       0.00000000       0.50000000 </v>
   <v>       0.50000000       0.50000000       0.00000000 </v>
   <v>       0.25000000       0.25000000       0.25000000 </v>
   <v>       0.25000000       0.75000000       0.75000000 </v>
   <v>       0.75000000       0.25000000       0.75000000 </v>
   <v>       0.75000000       0.75000000       0.25000000 </v>
  </varray>
 </structure>
</modeling>
